ITEM: TIMESTEP
100000
ITEM: NUMBER OF ATOMS
2048
ITEM: BOX BOUNDS pp pp pp
0.0000000000000000e+00 1.1950412657485773e+01
0.0000000000000000e+00 1.1950412657485773e+01
0.0000000000000000e+00 1.1950412657485773e+01
ITEM: ATOMS id type xs ys zs
649 1 0.240674 0.497719 0.258187
583 1 0.126117 0.496835 0.230665
1140 1 0.491369 0.43371 0.196507
294 1 0.185205 0.293948 0.497482
280 1 0.187695 0.188901 0.49675
647 1 0.183459 0.488991 0.312413
1092 1 0.499428 0.0558319 0.179326
645 1 0.057341 0.502496 0.307884
713 1 0.252597 0.491063 0.368625
228 1 -0.000960314 0.31725 0.429603
71 1 0.193484 0.00228863 0.19421
1172 1 0.493512 0.197586 0.309116
1060 1 0.491675 0.303604 0.0580772
10 1 0.309712 0.0601545 0.0073978
47 1 0.438347 0.24519 0.0584917
73 1 0.242782 0.00558568 0.132181
135 1 0.18425 0.00128383 0.306931
177 1 0.00552851 0.371832 0.24163
48 1 0.381008 0.31619 0.0570914
51 1 0.065411 0.37821 0.0584374
289 1 0.00157752 0.246453 0.485141
25 1 0.247304 0.119141 0.00308959
64 1 0.373173 0.444289 0.0634519
244 1 0.00757708 0.432269 0.42598
1028 1 0.495218 0.05883 0.0774562
1137 1 0.491369 0.376975 0.11776
241 1 0.0043325 0.373613 0.37183
8 1 0.123573 0.0682689 0.0637978
12 1 0.250894 0.0533086 0.0646328
16 1 0.378544 0.0606004 0.0594839
19 1 0.0617922 0.123646 0.0642587
23 1 0.189054 0.124771 0.0665926
27 1 0.312076 0.126131 0.0562041
31 1 0.436214 0.12226 0.0580743
651 1 0.314893 0.502104 0.311569
24 1 0.120128 0.177335 0.0606621
28 1 0.250804 0.19074 0.0609123
32 1 0.370278 0.189478 0.0622929
585 1 0.25265 0.499872 0.124495
35 1 0.0617177 0.25351 0.0606901
39 1 0.176037 0.250159 0.064759
43 1 0.308172 0.260096 0.0628159
40 1 0.126891 0.319885 0.0663555
44 1 0.240544 0.314278 0.0544197
97 1 -0.00124779 0.250191 0.129054
55 1 0.183266 0.378345 0.0551593
59 1 0.311637 0.381219 0.0672469
63 1 0.433604 0.383523 0.063679
56 1 0.109234 0.449961 0.0700432
60 1 0.246876 0.435969 0.0649583
37 1 0.123908 0.244941 0.00547825
122 1 0.310829 0.441763 0.119153
1105 1 0.495212 0.123944 0.132581
236 1 0.243636 0.303809 0.435735
36 1 0.00242516 0.317393 0.0561104
68 1 0.0671292 0.069747 0.125659
70 1 0.185202 0.0638125 0.125289
74 1 0.312805 0.0546398 0.126339
78 1 0.428846 0.064107 0.126512
306 1 0.0574114 0.439789 0.498088
85 1 0.135024 0.12749 0.138479
89 1 0.251793 0.11869 0.122451
93 1 0.376908 0.133399 0.122621
82 1 0.0654268 0.186543 0.138803
86 1 0.184201 0.194872 0.123759
90 1 0.305238 0.178791 0.117552
94 1 0.441039 0.195636 0.125467
101 1 0.119885 0.248156 0.128171
105 1 0.249161 0.261529 0.123474
109 1 0.363824 0.248386 0.120388
519 1 0.190433 0.499013 0.0586338
98 1 0.0653079 0.307111 0.121711
102 1 0.183043 0.305973 0.118934
106 1 0.322475 0.321733 0.121214
110 1 0.438394 0.319385 0.122056
117 1 0.119784 0.384508 0.120516
121 1 0.246837 0.377 0.117989
125 1 0.369252 0.387525 0.128075
100 1 0.000171822 0.31222 0.185192
114 1 0.0462821 0.444601 0.124115
126 1 0.428491 0.442191 0.118248
231 1 0.186837 0.248726 0.426488
118 1 0.179854 0.444653 0.120822
1076 1 0.493069 0.434594 0.0631681
72 1 0.144039 0.0650807 0.19866
133 1 0.116803 0.00536908 0.248507
225 1 0.00312146 0.235256 0.366672
87 1 0.207141 0.119955 0.193669
76 1 0.258409 0.0598077 0.18929
80 1 0.374456 0.0593009 0.184136
1188 1 0.489035 0.304295 0.308782
83 1 0.0662439 0.119485 0.198061
91 1 0.310363 0.118847 0.19668
95 1 0.42914 0.129916 0.179394
317 1 0.360592 0.383212 0.4973
88 1 0.132325 0.185934 0.192238
92 1 0.256111 0.188421 0.184766
96 1 0.371199 0.189791 0.177305
99 1 0.0559619 0.250655 0.188829
103 1 0.194692 0.245065 0.185219
107 1 0.318584 0.251335 0.187677
111 1 0.437913 0.266775 0.18313
104 1 0.127594 0.304579 0.185725
108 1 0.257388 0.308442 0.186158
112 1 0.37316 0.323032 0.179435
5 1 0.128469 0.00827859 0.00797054
115 1 0.0611937 0.374569 0.173705
119 1 0.188166 0.36966 0.172385
123 1 0.315593 0.377388 0.183485
127 1 0.430497 0.379039 0.181362
81 1 0.00787219 0.127047 0.120942
124 1 0.259005 0.438005 0.183101
128 1 0.361998 0.445227 0.181941
120 1 0.124621 0.437251 0.181537
247 1 0.184093 0.373974 0.43811
1329 1 0.494003 0.375905 0.492267
130 1 0.0548341 0.0564953 0.248637
134 1 0.204051 0.0629525 0.252842
262 1 0.194671 0.0670135 0.494532
14 1 0.444279 0.0594478 0.00513602
138 1 0.323919 0.0553946 0.247796
142 1 0.440016 0.0587741 0.253997
1265 1 0.496869 0.382163 0.37514
149 1 0.113948 0.11318 0.261439
153 1 0.259135 0.134696 0.257799
157 1 0.373735 0.124167 0.261612
165 1 0.0674754 0.177813 0.247234
150 1 0.197062 0.18392 0.247649
154 1 0.31906 0.191144 0.241103
158 1 0.441654 0.197424 0.242389
152 1 0.129291 0.24722 0.242653
169 1 0.252275 0.242316 0.244801
173 1 0.383619 0.257985 0.243447
79 1 0.439767 0.00260845 0.190409
162 1 0.0601725 0.313358 0.243304
166 1 0.187363 0.306045 0.246012
170 1 0.323098 0.318219 0.246548
174 1 0.431445 0.32264 0.248733
181 1 0.117134 0.370966 0.242861
185 1 0.248923 0.372297 0.241278
189 1 0.373649 0.384237 0.247619
7 1 0.18762 0.00223974 0.0644699
178 1 0.0646389 0.436466 0.242857
182 1 0.188601 0.430476 0.23855
186 1 0.306756 0.436898 0.252059
190 1 0.433595 0.439908 0.258385
239 1 0.437045 0.254337 0.433512
224 1 0.373788 0.191953 0.436108
711 1 0.186983 0.501166 0.438305
227 1 0.0710552 0.250851 0.431614
235 1 0.305805 0.250735 0.442081
136 1 0.115119 0.0555943 0.322133
140 1 0.257669 0.0767926 0.321153
144 1 0.375227 0.0551381 0.306829
219 1 0.314311 0.116152 0.433636
147 1 0.057437 0.121918 0.316507
151 1 0.190045 0.122228 0.304739
155 1 0.315088 0.13364 0.318532
159 1 0.446204 0.126617 0.310951
248 1 0.120701 0.428897 0.447652
213 1 0.124409 0.191169 0.309633
156 1 0.252639 0.190081 0.312575
160 1 0.380184 0.18468 0.305658
163 1 0.0638384 0.257237 0.307703
167 1 0.192495 0.248288 0.319882
171 1 0.3147 0.249458 0.307965
175 1 0.430116 0.246942 0.31744
168 1 0.132177 0.304578 0.307677
172 1 0.259349 0.311144 0.300654
176 1 0.375167 0.304895 0.312005
1204 1 0.493831 0.450493 0.312647
179 1 0.0691737 0.36726 0.309646
183 1 0.178537 0.374073 0.297329
187 1 0.311659 0.372403 0.319071
191 1 0.42782 0.370928 0.320971
302 1 0.433494 0.314743 0.495979
188 1 0.252126 0.431895 0.313426
192 1 0.363863 0.432173 0.317311
1185 1 0.493622 0.256748 0.24565
184 1 0.117438 0.434188 0.310544
243 1 0.0650444 0.365894 0.440123
148 1 0.00532103 0.182208 0.308225
1252 1 0.491665 0.31686 0.425263
4 1 0.00265656 0.0701915 0.0603561
194 1 0.0613998 0.0616629 0.384308
198 1 0.178663 0.0515378 0.378611
202 1 0.319638 0.0514015 0.370575
206 1 0.451854 0.0602237 0.376451
220 1 0.244299 0.194303 0.432634
216 1 0.118213 0.120308 0.377336
217 1 0.251132 0.130823 0.378046
221 1 0.38467 0.138949 0.375441
210 1 0.0672093 0.182281 0.368888
214 1 0.179248 0.180027 0.373412
218 1 0.315653 0.191817 0.377456
222 1 0.439949 0.194887 0.376151
164 1 0.00577472 0.315199 0.305657
229 1 0.123605 0.244033 0.366495
233 1 0.25037 0.248018 0.374751
237 1 0.372897 0.247799 0.376657
286 1 0.435865 0.195521 0.489789
226 1 0.0736449 0.30324 0.37064
230 1 0.192578 0.312129 0.365959
234 1 0.298484 0.310857 0.369659
238 1 0.424827 0.310225 0.37706
256 1 0.369097 0.43765 0.43859
245 1 0.122171 0.375277 0.378928
249 1 0.241492 0.382965 0.37754
253 1 0.371374 0.374648 0.375809
252 1 0.251516 0.44299 0.43786
242 1 0.0594514 0.440545 0.363479
246 1 0.179525 0.438172 0.377971
250 1 0.310074 0.439453 0.377175
254 1 0.430582 0.431013 0.371652
66 1 0.125201 0.00564945 0.143438
251 1 0.308263 0.380497 0.433641
200 1 0.126019 0.0638373 0.437942
207 1 0.449485 -0.00221216 0.435347
255 1 0.428563 0.380571 0.435177
232 1 0.131618 0.315029 0.432492
204 1 0.252375 0.0611018 0.421372
208 1 0.387335 0.0618943 0.42768
211 1 0.0570157 0.118833 0.440318
215 1 0.19342 0.127494 0.435104
223 1 0.450308 0.12676 0.430533
240 1 0.372065 0.319117 0.437935
278 1 0.11995 0.185329 0.430801
1169 1 0.49977 0.125468 0.252381
199 1 0.191631 0.00203049 0.44268
3 1 0.0613858 0.00470934 0.0769226
281 1 0.263952 0.139 0.494649
1044 1 0.490845 0.179548 0.0631209
591 1 0.430566 0.493989 0.184142
707 1 0.0638345 0.494687 0.436025
203 1 0.312012 0.0112953 0.440717
1268 1 0.492612 0.445883 0.432569
709 1 0.121611 0.494634 0.367222
1025 1 0.499447 0.000102093 0.0187881
318 1 0.434121 0.442245 0.490427
1201 1 0.493414 0.385266 0.260349
20 1 0.00572385 0.190589 0.069965
285 1 0.383524 0.127653 0.479215
301 1 0.378979 0.259284 0.494018
22 1 0.189008 0.18873 0.00822715
717 1 0.37587 0.49212 0.374936
143 1 0.446914 0.00472644 0.315225
257 1 0.00403776 0.00520951 0.499755
58 1 0.312347 0.442566 0.00290277
2 1 0.0660448 0.0649494 0.00151766
205 1 0.385511 0.00371303 0.370732
313 1 0.248318 0.378231 0.496183
298 1 0.301225 0.310386 0.493933
282 1 0.3241 0.191799 0.495226
61 1 0.380555 0.380321 0.00521451
581 1 0.192161 0.495526 0.183935
523 1 0.306917 0.499318 0.0605353
270 1 0.447543 0.0660765 0.497726
258 1 0.0645329 0.0581536 0.497163
42 1 0.305085 0.314925 0.00486188
773 1 0.118233 0.490713 0.497931
34 1 0.0667472 0.303139 0.000489963
310 1 0.183739 0.431219 0.498042
903 1 0.185315 0.50509 0.794211
268 1 0.249059 0.0687908 0.553967
54 1 0.183994 0.436675 0.988796
969 1 0.234099 0.495592 0.864125
839 1 0.181656 0.496266 0.68742
497 1 0.00576616 0.376695 0.880053
1362 1 0.496033 0.120354 0.621819
353 1 0.00824617 0.241144 0.623473
26 1 0.322579 0.189356 0.996026
291 1 0.0637502 0.254948 0.559526
781 1 0.376339 0.490829 0.515692
295 1 0.196214 0.245315 0.563136
290 1 0.0743835 0.311435 0.498863
303 1 0.447858 0.247463 0.555531
901 1 0.113936 0.491385 0.739994
307 1 0.0743926 0.361187 0.566248
404 1 0.00484642 0.183625 0.829372
315 1 0.307527 0.36115 0.55927
1471 1 0.00363288 0.310625 0.819893
1441 1 0.493948 0.251084 0.751754
276 1 0.0115966 0.193161 0.561679
1379 1 0.50066 0.317136 0.689296
18 1 0.0635584 0.181741 0.999402
961 1 0.00314634 0.498763 0.883964
884 1 0.130684 0.00147937 0.619318
264 1 0.118544 0.0557937 0.562928
272 1 0.376009 0.0651618 0.559136
21 1 0.132742 0.124496 0.996942
275 1 0.0676952 0.117724 0.563739
279 1 0.189788 0.120737 0.557747
283 1 0.324401 0.126196 0.565929
287 1 0.435144 0.121862 0.568504
338 1 0.118037 0.187042 0.561851
284 1 0.259485 0.182455 0.565413
288 1 0.381666 0.189772 0.556851
299 1 0.309458 0.254749 0.563764
297 1 0.249355 0.243317 0.500405
296 1 0.13088 0.306076 0.560742
300 1 0.249886 0.305859 0.558051
304 1 0.384763 0.30804 0.557769
311 1 0.193005 0.372241 0.55785
319 1 0.436744 0.374146 0.559207
312 1 0.130186 0.432491 0.580113
314 1 0.300706 0.445579 0.4965
316 1 0.2499 0.438051 0.558233
320 1 0.375658 0.429856 0.566832
1444 1 0.49693 0.303998 0.816115
322 1 0.0660349 0.0543212 0.627194
326 1 0.1926 0.058664 0.622016
349 1 0.322938 0.0576249 0.623473
334 1 0.443228 0.0593911 0.626514
29 1 0.376314 0.130419 0.992717
341 1 0.12778 0.126877 0.616261
345 1 0.255393 0.121047 0.621835
347 1 0.379066 0.138545 0.62703
340 1 0.0680401 0.183822 0.626029
342 1 0.192218 0.184883 0.627164
346 1 0.321904 0.196322 0.621508
350 1 0.440756 0.192572 0.63032
367 1 0.496303 0.193208 0.694922
357 1 0.127395 0.254546 0.632708
361 1 0.250852 0.250261 0.619238
365 1 0.379506 0.253302 0.623761
337 1 0.00490886 0.118967 0.621983
354 1 0.0709314 0.308947 0.624751
358 1 0.191602 0.316173 0.625656
362 1 0.316355 0.308042 0.622356
366 1 0.444667 0.313936 0.617072
6 1 0.186428 0.0614655 0.988015
373 1 0.129614 0.368321 0.635618
377 1 0.254415 0.374622 0.620849
381 1 0.373521 0.371961 0.625527
845 1 0.361026 0.491546 0.617164
374 1 0.197551 0.443663 0.624857
382 1 0.430019 0.432645 0.629603
370 1 0.0584993 0.431763 0.621503
273 1 0.0109542 0.12376 0.506746
378 1 0.30632 0.44043 0.631861
333 1 0.381679 0.000206876 0.623708
332 1 0.25505 0.0674157 0.690248
336 1 0.378663 0.0651159 0.678215
328 1 0.120711 0.0664046 0.677414
411 1 0.321654 0.130515 0.682521
327 1 0.192827 0.00303529 0.679522
339 1 0.0663391 0.130972 0.689931
343 1 0.195291 0.11783 0.679452
351 1 0.434641 0.127752 0.683685
261 1 0.130788 -0.00168231 0.506029
344 1 0.131816 0.194024 0.687354
348 1 0.260372 0.188017 0.676991
352 1 0.373734 0.194541 0.686235
355 1 0.0676679 0.247507 0.687864
359 1 0.19654 0.252849 0.6795
363 1 0.314736 0.254506 0.69774
368 1 0.43796 0.24976 0.688818
360 1 0.132316 0.306297 0.694119
364 1 0.255246 0.308589 0.685041
383 1 0.376105 0.308829 0.684101
371 1 0.0569131 0.374225 0.680222
375 1 0.204437 0.374118 0.689249
379 1 0.318168 0.367519 0.689096
446 1 0.438245 0.367637 0.689298
376 1 0.126141 0.437294 0.682365
384 1 0.369458 0.44232 0.687468
260 1 0.0147208 0.0595118 0.563933
835 1 0.0616293 0.494758 0.684037
1537 1 0.495118 0.499923 0.991972
380 1 0.249767 0.452169 0.692147
274 1 0.0648285 0.181223 0.500402
62 1 0.434176 0.444026 0.995708
386 1 0.0735391 0.0594183 0.742245
390 1 0.183879 0.0613771 0.753308
394 1 0.318019 0.0729731 0.740692
398 1 0.44157 0.069373 0.7571
405 1 0.131695 0.130263 0.75184
409 1 0.251977 0.125533 0.746298
413 1 0.381823 0.120945 0.744903
419 1 0.0602835 0.18691 0.759148
406 1 0.186716 0.195314 0.748075
410 1 0.327608 0.179465 0.751548
414 1 0.427414 0.191304 0.746869
421 1 0.12879 0.249483 0.754061
425 1 0.251772 0.245775 0.757404
429 1 0.375954 0.250546 0.756192
330 1 0.323632 0.0031507 0.686161
418 1 0.0687573 0.315889 0.743463
422 1 0.19441 0.30869 0.74148
426 1 0.305742 0.319616 0.750517
430 1 0.431821 0.318006 0.756065
437 1 0.112751 0.386309 0.745159
441 1 0.255182 0.380635 0.752686
445 1 0.374001 0.373911 0.74829
434 1 0.0501639 0.438605 0.749695
442 1 0.314331 0.447727 0.752605
1457 1 0.442739 0.430376 0.7528
453 1 0.12111 0.00526464 0.881972
438 1 0.181909 0.432458 0.744953
53 1 0.127711 0.36477 0.995481
467 1 0.0632725 0.120103 0.932103
496 1 0.373302 0.310208 0.933193
392 1 0.124282 0.0542258 0.80944
49 1 0.00578622 0.379534 0.995912
499 1 0.072727 0.369337 0.935795
391 1 0.253194 0.0674981 0.807287
400 1 0.390529 0.0500736 0.822504
403 1 0.0569376 0.120268 0.812755
396 1 0.190804 0.126015 0.811221
412 1 0.326395 0.11583 0.811418
415 1 0.442018 0.127241 0.825975
33 1 0.0110513 0.241544 0.996245
408 1 0.122016 0.187051 0.808316
407 1 0.275059 0.182415 0.815676
416 1 0.384293 0.186791 0.817459
420 1 0.06077 0.259044 0.807869
423 1 0.195743 0.251197 0.814224
427 1 0.316557 0.250887 0.812543
431 1 0.437951 0.247912 0.820634
424 1 0.119665 0.30788 0.805579
428 1 0.248876 0.322486 0.808511
432 1 0.370129 0.315465 0.819297
435 1 0.055127 0.385982 0.813517
439 1 0.187254 0.382633 0.808967
443 1 0.319847 0.381866 0.806471
447 1 0.448143 0.378094 0.816415
17 1 0.010818 0.121285 0.994099
440 1 0.118689 0.436056 0.824224
444 1 0.24961 0.436276 0.810404
448 1 0.37974 0.439633 0.805166
500 1 0.00300881 0.434548 0.933726
1361 1 0.498283 0.0788313 0.690985
1492 1 0.499159 0.191965 0.934229
1390 1 -9.34964e-05 0.318979 0.68311
45 1 0.379291 0.252339 0.993061
450 1 0.0668519 0.0644757 0.874907
454 1 0.191432 0.0552223 0.877944
458 1 0.318922 0.0649314 0.879485
462 1 0.449232 0.0604611 0.884383
46 1 0.439687 0.30866 0.994285
469 1 0.130065 0.129263 0.878187
473 1 0.252213 0.124903 0.8774
477 1 0.377795 0.123365 0.877751
466 1 0.0727479 0.188876 0.874587
470 1 0.183838 0.189097 0.863959
474 1 0.316221 0.196843 0.884971
478 1 0.436658 0.189312 0.877123
485 1 0.130938 0.255238 0.863214
489 1 0.243747 0.25617 0.875332
493 1 0.37173 0.252106 0.869931
395 1 0.316692 0.0136568 0.823394
482 1 0.0601346 0.303279 0.88788
486 1 0.189098 0.315271 0.867883
490 1 0.31217 0.320317 0.878798
494 1 0.437168 0.323 0.870822
271 1 0.434376 0.00326743 0.561924
501 1 0.123738 0.368487 0.866894
505 1 0.251904 0.37339 0.87298
509 1 0.380468 0.384617 0.867438
324 1 0.0120829 0.0623803 0.691632
498 1 0.0620151 0.435766 0.876694
506 1 0.308228 0.440989 0.865232
510 1 0.443972 0.440873 0.86776
308 1 0.00580464 0.434351 0.564296
502 1 0.181955 0.435487 0.880266
459 1 0.304405 0.00221384 0.94448
397 1 0.387336 0.0144668 0.739549
451 1 0.0682789 0.00194986 0.943776
456 1 0.120239 0.0664145 0.939519
460 1 0.255582 0.0635703 0.944792
464 1 0.378141 0.0557982 0.944544
30 1 0.444106 0.194475 0.989509
471 1 0.186933 0.128818 0.938171
475 1 0.316256 0.132633 0.938773
479 1 0.435513 0.121959 0.937467
472 1 0.1304 0.186325 0.945768
476 1 0.246976 0.177305 0.944553
480 1 0.379486 0.192886 0.935539
1524 1 0.484602 0.434111 0.937723
483 1 0.0739848 0.244134 0.941132
487 1 0.18478 0.244604 0.93374
491 1 0.311062 0.257551 0.94732
495 1 0.43206 0.256332 0.921826
1377 1 0.498385 0.255162 0.626961
488 1 0.123647 0.308406 0.937769
492 1 0.256542 0.321794 0.938391
325 1 0.198331 0.00512879 0.561613
503 1 0.182637 0.367424 0.933646
507 1 0.325735 0.374187 0.94037
511 1 0.421951 0.377152 0.937261
417 1 -5.17477e-05 0.249573 0.749558
504 1 0.120196 0.433278 0.929104
508 1 0.244356 0.444867 0.926027
512 1 0.370053 0.445855 0.938755
481 1 0.00167577 0.244177 0.882687
847 1 0.438526 0.487772 0.689659
369 1 -0.00246393 0.434512 0.683658
41 1 0.250421 0.249296 1.00031
965 1 0.11399 0.499401 0.878282
771 1 0.0762402 0.492433 0.570784
1505 1 0.502316 0.248863 0.87981
452 1 0.00909524 0.0579187 0.936717
277 1 0.125238 0.123746 0.509127
393 1 0.256925 0.00367527 0.753282
1393 1 0.497114 0.374925 0.629049
1300 1 0.49545 0.177374 0.56053
401 1 0.00517911 0.122225 0.747957
50 1 0.0614778 0.44031 0.99006
1332 1 0.490502 0.43581 0.572867
1521 1 0.498791 0.376412 0.88173
38 1 0.184936 0.29856 0.997822
1396 1 0.494747 0.430092 0.689628
266 1 0.314878 0.0624445 0.501315
57 1 0.238908 0.379307 0.992268
309 1 0.134899 0.366775 0.504783
1412 1 0.498406 0.0509394 0.819207
899 1 0.0634061 0.495753 0.8125
1425 1 0.492304 0.136362 0.761999
305 1 0.0102487 0.368904 0.502051
293 1 0.12276 0.242247 0.50169
1041 1 0.489783 0.130775 0.99749
1073 1 0.488525 0.369945 0.99457
821 1 0.128681 0.870317 0.494409
1745 1 0.500562 0.631205 0.370332
520 1 0.132764 0.556629 0.0725025
1761 1 0.494882 0.755087 0.382346
573 1 0.390067 0.86306 0.00721331
528 1 0.379522 0.574188 0.0614602
15 1 0.431302 0.994634 0.0718189
739 1 -0.000912359 0.81397 0.439452
564 1 -0.00506622 0.939175 0.0631751
785 1 0.00118459 0.614169 0.494697
547 1 0.0611638 0.734377 0.0634251
195 1 0.0704002 0.998296 0.447489
1540 1 0.491874 0.567749 0.0515081
1700 1 0.498505 0.805846 0.313802
643 1 0.00214178 0.555726 0.301099
517 1 0.129138 0.504048 0.00776683
721 1 0.00660474 0.685527 0.447012
548 1 0.00595496 0.812343 0.0703184
522 1 0.312143 0.568044 0.00991542
794 1 0.308243 0.679434 0.492314
515 1 0.0529136 0.505241 0.0515676
562 1 0.0128394 0.997908 0.00819345
818 1 0.0715473 0.929435 0.489946
582 1 0.190814 0.559801 0.128089
524 1 0.256965 0.572617 0.0657558
653 1 0.370114 0.507701 0.241221
531 1 0.063667 0.630139 0.0587524
535 1 0.185129 0.618072 0.0622219
539 1 0.31954 0.63374 0.0597998
543 1 0.441792 0.639653 0.0607653
536 1 0.129715 0.6844 0.0530668
540 1 0.245521 0.690385 0.0612537
544 1 0.376671 0.694698 0.0632857
551 1 0.17712 0.753035 0.063436
555 1 0.314379 0.751684 0.0677891
559 1 0.438966 0.748202 0.0538212
767 1 0.438773 0.876119 0.437699
552 1 0.106128 0.802486 0.059176
556 1 0.248918 0.800683 0.0626541
560 1 0.381515 0.804253 0.0677427
563 1 0.05092 0.875852 0.0690322
567 1 0.182819 0.897149 0.0733619
571 1 0.321778 0.864621 0.0543259
575 1 0.43226 0.874206 0.0803338
801 1 0.00229825 0.74309 0.501844
572 1 0.253521 0.927814 0.0561021
576 1 0.364969 0.931821 0.0684966
774 1 0.182072 0.558394 0.49952
69 1 0.121209 0.945565 0.077796
201 1 0.253959 0.997978 0.364442
131 1 0.0552018 0.997424 0.319682
578 1 0.0599689 0.55691 0.113654
586 1 0.314358 0.562744 0.120428
590 1 0.434349 0.563758 0.12595
737 1 0.00352788 0.750724 0.382019
597 1 0.126412 0.627746 0.117023
601 1 0.242057 0.622731 0.130267
605 1 0.369206 0.625509 0.121478
594 1 0.055016 0.681952 0.123367
598 1 0.187068 0.697093 0.132473
602 1 0.311268 0.683443 0.122738
606 1 0.438127 0.691028 0.124976
613 1 0.123616 0.751578 0.131405
617 1 0.243712 0.749677 0.124725
621 1 0.376433 0.748798 0.124762
610 1 0.0603279 0.801064 0.132234
614 1 0.199227 0.816963 0.127981
618 1 0.305313 0.821729 0.116626
622 1 0.43855 0.811209 0.129264
629 1 0.111924 0.880052 0.128126
633 1 0.248035 0.886189 0.12894
637 1 0.363457 0.876707 0.123945
626 1 0.0549901 0.938429 0.127288
630 1 0.189125 0.946157 0.137235
634 1 0.313658 0.943247 0.132161
638 1 0.453593 0.9272 0.139223
825 1 0.25657 0.868599 0.493809
1681 1 0.496076 0.624314 0.24861
790 1 0.183642 0.688452 0.493774
789 1 0.121498 0.612377 0.49609
1697 1 0.495081 0.74709 0.256531
584 1 0.116266 0.570337 0.186435
588 1 0.243918 0.566022 0.193748
592 1 0.368668 0.574236 0.189898
595 1 0.0634687 0.632008 0.195995
599 1 0.178912 0.616901 0.18136
603 1 0.303671 0.62187 0.180504
607 1 0.440251 0.625729 0.185081
1601 1 0.495992 0.512314 0.134374
600 1 0.125819 0.684225 0.188848
604 1 0.246733 0.688705 0.191771
608 1 0.374672 0.684891 0.187511
574 1 0.436547 0.930749 0.00326688
611 1 0.0603015 0.734561 0.193074
615 1 0.181132 0.754701 0.192934
619 1 0.316916 0.756179 0.173163
623 1 0.446992 0.750929 0.191022
616 1 0.115653 0.812943 0.192959
620 1 0.245803 0.806348 0.189839
624 1 0.37565 0.812536 0.18281
265 1 0.262009 0.992254 0.501377
627 1 0.0515537 0.882077 0.199245
631 1 0.171486 0.869299 0.182929
635 1 0.319499 0.873118 0.191896
639 1 0.445917 0.864265 0.188814
1668 1 0.489714 0.566369 0.315534
632 1 0.116777 0.934448 0.187424
636 1 0.258628 0.92765 0.19357
640 1 0.374057 0.933423 0.190657
569 1 0.253975 0.861913 -0.000611067
732 1 0.245268 0.683025 0.426007
11 1 0.304822 0.991938 0.0640003
766 1 0.442968 0.939369 0.375889
642 1 0.0645019 0.556999 0.246662
646 1 0.183338 0.558932 0.24734
650 1 0.30977 0.566828 0.246191
654 1 0.428756 0.567771 0.257041
77 1 0.37226 0.999717 0.127701
661 1 0.11684 0.625301 0.260281
665 1 0.238225 0.617481 0.254106
669 1 0.373214 0.631163 0.2521
658 1 0.060382 0.688038 0.259753
662 1 0.184175 0.675411 0.267512
666 1 0.303941 0.676163 0.246136
670 1 0.434226 0.691148 0.243882
676 1 0.00978495 0.828075 0.319036
677 1 0.107272 0.765241 0.260852
681 1 0.242598 0.743673 0.257139
685 1 0.372259 0.746691 0.242125
516 1 0.00475057 0.572142 0.0588633
674 1 0.0566666 0.827344 0.255874
678 1 0.177664 0.818888 0.253953
682 1 0.307695 0.798062 0.242569
686 1 0.434458 0.803852 0.25205
527 1 0.435008 0.507594 0.0602358
693 1 0.120986 0.881782 0.253734
697 1 0.264109 0.866908 0.246325
701 1 0.384048 0.868471 0.252666
129 1 0.00141887 0.990016 0.258231
690 1 0.0597638 0.934804 0.260132
694 1 0.187237 0.927274 0.233868
698 1 0.314305 0.930535 0.248363
702 1 0.450799 0.935432 0.252465
577 1 0.125443 0.505128 0.136669
568 1 0.129756 0.877596 0.0137597
625 1 0.00419678 0.857291 0.133969
1764 1 0.493926 0.804102 0.448025
589 1 0.376622 0.508431 0.111554
648 1 0.125813 0.552584 0.308259
652 1 0.256634 0.563094 0.310458
656 1 0.365375 0.563332 0.309753
1841 1 0.499954 0.874132 0.499982
659 1 0.0580493 0.622075 0.315188
663 1 0.18885 0.614663 0.320371
667 1 0.316404 0.628131 0.3124
671 1 0.435152 0.630592 0.308943
719 1 0.425255 0.511626 0.438022
664 1 0.116198 0.703259 0.314695
668 1 0.256287 0.681049 0.314821
672 1 0.37588 0.683401 0.314709
675 1 0.0539013 0.753202 0.320492
679 1 0.17856 0.758727 0.306463
683 1 0.316485 0.734915 0.305309
687 1 0.439118 0.743259 0.317657
680 1 0.124628 0.821854 0.32005
684 1 0.255856 0.817789 0.311913
688 1 0.369145 0.797605 0.312484
715 1 0.321278 0.503878 0.444027
691 1 0.0690257 0.88346 0.333598
695 1 0.188937 0.891258 0.30295
699 1 0.314573 0.866639 0.322237
703 1 0.441851 0.87215 0.316434
696 1 0.123289 0.943217 0.307634
700 1 0.253616 0.937734 0.313339
704 1 0.387915 0.933445 0.31438
137 1 0.255628 0.997211 0.242186
770 1 0.0560404 0.555013 0.498643
748 1 0.247805 0.808488 0.435594
565 1 0.0618331 0.929549 0.0119204
714 1 0.308986 0.549708 0.375875
759 1 0.117984 0.8004 0.43777
706 1 0.0600229 0.56293 0.374328
710 1 0.187902 0.548531 0.371112
718 1 0.426356 0.568213 0.36646
725 1 0.117993 0.616681 0.370305
729 1 0.254594 0.622788 0.366496
733 1 0.366672 0.621105 0.376043
67 1 0.0549374 0.995987 0.188029
722 1 0.0589253 0.689169 0.384745
726 1 0.181732 0.68861 0.365725
730 1 0.311972 0.698359 0.376899
734 1 0.427244 0.678434 0.375657
741 1 0.123777 0.758628 0.370979
745 1 0.238076 0.745473 0.361314
749 1 0.374504 0.75126 0.380192
593 1 0.010219 0.61809 0.12737
738 1 0.0602516 0.807493 0.38227
742 1 0.19747 0.817966 0.372252
746 1 0.303783 0.793881 0.370442
750 1 0.44552 0.817269 0.375414
757 1 0.13823 0.881648 0.377412
761 1 0.251687 0.882594 0.380001
765 1 0.381032 0.877868 0.37216
75 1 0.323988 0.995857 0.190673
754 1 0.0578962 0.937322 0.393595
758 1 0.191841 0.944707 0.367777
13 1 0.372017 0.995528 0.00691367
762 1 0.324736 0.934235 0.373179
1729 1 0.472822 0.499277 0.372877
550 1 0.180624 0.815886 0.00927305
1665 1 0.486006 0.50352 0.253808
712 1 0.122272 0.551248 0.439407
716 1 0.244553 0.56677 0.427258
720 1 0.368107 0.574087 0.440933
723 1 0.0650822 0.61416 0.441611
727 1 0.177295 0.619032 0.436413
731 1 0.304492 0.624116 0.428266
735 1 0.438275 0.628736 0.439224
644 1 0.000310767 0.620004 0.378197
728 1 0.128986 0.695607 0.43259
736 1 0.370335 0.676325 0.439313
1089 1 0.495774 0.991622 0.118133
744 1 0.0602895 0.748387 0.446121
743 1 0.197882 0.745934 0.441096
747 1 0.311351 0.75164 0.442821
751 1 0.43549 0.747325 0.432832
752 1 0.371481 0.810378 0.44084
793 1 0.244483 0.612401 0.49409
755 1 0.067862 0.865766 0.439206
808 1 0.187868 0.872288 0.443932
763 1 0.311886 0.881587 0.434776
760 1 0.137018 0.946552 0.438967
764 1 0.264645 0.945257 0.431014
768 1 0.372333 0.939288 0.439778
609 1 0.00365446 0.74694 0.121957
9 1 0.238415 0.997217 -0.000925237
141 1 0.38086 0.994091 0.247237
139 1 0.324759 0.989156 0.309201
612 1 0.000235791 0.80332 0.191717
197 1 0.119057 0.995381 0.375121
1732 1 0.493342 0.561773 0.424518
538 1 0.317963 0.699271 0.000823063
554 1 0.31925 0.806576 0.00248925
566 1 0.178552 0.941695 -0.00162771
579 1 0.0521176 0.503241 0.177721
655 1 0.421406 0.500157 0.303583
587 1 0.30574 0.503583 0.195104
806 1 0.18093 0.81138 0.494166
1604 1 0.485862 0.560054 0.196412
1633 1 0.497266 0.752808 0.122814
657 1 0.00505492 0.62013 0.250015
570 1 0.312973 0.940354 0.00196313
777 1 0.244271 0.503656 0.498189
1553 1 0.499186 0.626518 0.00161616
558 1 0.447767 0.808326 0.00179189
537 1 0.244232 0.628311 0.994643
881 1 0.00373255 0.871578 0.630176
822 1 0.19423 0.93855 0.510735
814 1 0.441071 0.80756 0.501055
329 1 0.250811 0.997312 0.624032
788 1 0.00721731 0.679548 0.548794
996 1 0.00584176 0.819706 0.929905
909 1 0.373684 0.508515 0.750024
826 1 0.324727 0.927475 0.501235
267 1 0.313987 0.991915 0.562417
913 1 0.000341772 0.620052 0.756503
457 1 0.261829 0.982572 0.877885
810 1 0.314326 0.814942 0.514597
900 1 0.00290584 0.554189 0.812095
778 1 0.316394 0.560081 0.504035
813 1 0.369322 0.742214 0.503037
841 1 0.249714 0.508619 0.632548
907 1 0.317176 0.509366 0.814724
782 1 0.425337 0.558281 0.502938
461 1 0.366176 0.99929 0.887546
905 1 0.259428 0.508589 0.759387
1011 1 0.122316 0.938848 0.934225
2001 1 0.500338 0.624321 0.869107
776 1 0.128157 0.564944 0.559693
780 1 0.242539 0.577374 0.573848
784 1 0.374621 0.564346 0.562854
911 1 0.43308 0.502594 0.810128
787 1 0.0593453 0.619393 0.558116
791 1 0.177536 0.630494 0.549677
795 1 0.31238 0.624684 0.561092
799 1 0.443224 0.618118 0.564345
792 1 0.124377 0.695101 0.56352
796 1 0.244099 0.681544 0.567005
800 1 0.365559 0.681371 0.568115
803 1 0.0671682 0.753247 0.568533
807 1 0.188267 0.745808 0.569844
811 1 0.316591 0.752958 0.570484
815 1 0.441287 0.756649 0.561859
870 1 0.129174 0.818435 0.563799
812 1 0.247957 0.813478 0.559124
816 1 0.384223 0.815948 0.563129
819 1 0.0667261 0.871385 0.552514
823 1 0.192855 0.873035 0.553091
827 1 0.317627 0.878178 0.567617
831 1 0.43826 0.876994 0.559874
824 1 0.13191 0.932243 0.557087
828 1 0.257447 0.933574 0.568943
832 1 0.381919 0.942259 0.561038
387 1 0.0684424 0.996938 0.82239
1919 1 0.00918026 0.940484 0.69262
542 1 0.449809 0.689375 0.99502
259 1 0.0665862 0.998852 0.555411
952 1 0.202104 0.995688 0.81386
2036 1 0.49473 0.939419 0.95015
834 1 0.0568389 0.564947 0.614072
838 1 0.197892 0.570774 0.637524
842 1 0.310756 0.566884 0.622006
846 1 0.429574 0.564302 0.62343
399 1 0.453713 0.985461 0.828272
853 1 0.110755 0.635484 0.618932
857 1 0.246744 0.638769 0.639694
861 1 0.371012 0.621423 0.624911
850 1 0.0473093 0.693056 0.624379
873 1 0.179324 0.687525 0.626277
858 1 0.315522 0.683266 0.635227
862 1 0.441876 0.689973 0.61752
869 1 0.119791 0.742285 0.630247
860 1 0.25627 0.74642 0.625541
877 1 0.382297 0.760104 0.619482
971 1 0.311286 0.498484 0.927906
866 1 0.0650675 0.81607 0.626027
874 1 0.192722 0.816348 0.620431
893 1 0.323761 0.81735 0.62244
878 1 0.447152 0.819943 0.619364
885 1 0.13058 0.867977 0.624519
889 1 0.249683 0.87051 0.616052
896 1 0.381531 0.880901 0.626202
882 1 0.0726766 0.942855 0.625083
263 1 0.193442 0.942244 0.625689
890 1 0.320295 0.942417 0.632306
894 1 0.445504 0.936923 0.621095
1000 1 0.127255 0.808589 0.939794
804 1 0.00547824 0.812098 0.566711
546 1 0.0513025 0.804175 1.00179
802 1 0.0528382 0.80755 0.499771
1023 1 0.448889 0.868791 0.936528
1009 1 0.0619147 0.879857 0.934685
1008 1 0.384563 0.821621 0.939255
840 1 0.127267 0.569213 0.671805
844 1 0.254897 0.563237 0.695677
848 1 0.37631 0.570417 0.68938
851 1 0.0665193 0.623771 0.693349
855 1 0.179532 0.631869 0.687542
859 1 0.317624 0.625615 0.699293
863 1 0.441733 0.620251 0.687078
854 1 0.115524 0.687324 0.69755
922 1 0.256839 0.698958 0.692089
864 1 0.381173 0.67838 0.689918
867 1 0.064963 0.761214 0.696146
871 1 0.188052 0.747712 0.679565
875 1 0.326059 0.739005 0.697351
879 1 0.431748 0.749811 0.686467
837 1 0.130175 0.509246 0.624819
872 1 0.134937 0.810951 0.684108
876 1 0.257509 0.801862 0.680061
880 1 0.386241 0.819674 0.674887
967 1 0.186538 0.499832 0.933609
883 1 0.0697275 0.888633 0.689882
887 1 0.197825 0.87199 0.675534
891 1 0.308815 0.87302 0.678856
335 1 0.451053 0.878179 0.684181
886 1 0.135045 0.935287 0.677562
892 1 0.261966 0.949422 0.694814
331 1 0.385223 0.945211 0.681193
1348 1 0.454818 0.989627 0.69089
999 1 0.184546 0.747357 0.928888
973 1 0.378774 0.505828 0.87709
1007 1 0.441371 0.755546 0.941996
988 1 0.261382 0.695936 0.932787