ITEM: TIMESTEP
100000
ITEM: NUMBER OF ATOMS
2048
ITEM: BOX BOUNDS pp pp pp
0.0000000000000000e+00 1.2699208415745595e+01
0.0000000000000000e+00 1.2699208415745595e+01
0.0000000000000000e+00 1.2699208415745595e+01
ITEM: ATOMS id type xs ys zs
1520 1 0.0754093 0.349067 0.496979
431 1 0.143953 0.0659886 0.0115354
78 1 0.0849364 0.336267 0.403735
410 1 0.236256 0.042328 0.459285
982 1 0.204455 0.454073 0.203006
792 1 0.0386562 0.0103322 0.482085
1881 1 0.311889 0.475766 0.256427
458 1 0.334137 0.476328 0.0198568
671 1 0.175069 0.428112 0.399075
1429 1 0.448077 0.35346 0.144412
167 1 0.473279 0.147863 0.10138
1069 1 0.298836 0.452319 0.0922745
535 1 0.0496763 0.262472 0.304184
439 1 0.396968 0.100265 0.492064
1117 1 0.355068 0.312681 0.0607976
1334 1 0.429355 0.174036 0.41433
555 1 0.0394449 0.387527 0.34661
1788 1 0.365156 0.0574579 0.225869
1351 1 0.44698 0.35261 0.479096
1295 1 0.306953 0.382693 0.151685
419 1 0.132724 0.307597 0.258342
1643 1 0.438764 0.460316 0.366886
299 1 0.00445502 0.260352 0.424949
1731 1 0.0854701 0.0996271 0.241452
1558 1 0.390412 0.199123 0.200538
1588 1 0.461271 0.41679 0.435471
747 1 0.0745019 0.401668 0.171984
884 1 0.426826 0.238758 0.468665
873 1 0.48565 0.296167 0.0119942
1057 1 0.473802 0.0350427 0.335053
1320 1 0.055065 0.219764 0.0746201
1714 1 0.428781 0.0983492 0.415614
509 1 0.492248 0.372084 0.0405354
801 1 0.0265099 0.17379 0.414542
526 1 0.435019 0.0360224 0.127811
83 1 0.180909 0.0208444 0.0681039
35 1 0.0563984 0.443233 0.48493
1810 1 0.244402 0.341817 0.112351
1290 1 0.349226 0.224614 0.0249564
2033 1 0.0358466 0.471196 0.103864
1956 1 0.284255 0.290658 0.0341466
297 1 0.157834 0.0851864 0.366095
53 1 0.201322 0.46577 0.0769665
1723 1 0.361021 0.482239 0.330284
380 1 0.0462279 0.148662 0.102671
716 1 0.183733 0.3699 0.0804535
687 1 0.389619 0.459319 0.257169
126 1 0.0728847 0.254055 0.221891
661 1 0.256636 0.447136 0.0158297
287 1 0.135198 0.393 0.463444
219 1 0.444448 0.119525 0.342138
1321 1 0.227913 0.483327 0.366547
385 1 0.432219 0.0750433 0.203993
1052 1 0.0682118 0.236516 0.380405
1576 1 0.077194 0.0909266 0.155373
1260 1 0.318076 0.0305796 0.309065
1922 1 0.273062 0.271519 0.183644
1357 1 0.0696828 0.485029 0.348396
787 1 0.113242 0.261061 0.13898
1063 1 0.469103 0.392986 0.363253
570 1 0.212202 0.172868 0.0887313
1313 1 0.107494 0.152502 0.0212893
595 1 0.259604 0.220083 0.0449183
1907 1 0.281649 0.0121216 0.0706885
1824 1 0.126764 0.230309 0.00912748
197 1 0.327936 0.312132 0.130613
1526 1 0.385898 0.325559 0.21256
84 1 0.0824149 0.0910791 0.491911
1974 1 0.203538 0.276941 0.28584
216 1 0.174174 0.306585 0.135203
2027 1 0.185337 0.275888 0.20742
783 1 0.250883 0.264098 0.102989
1265 1 0.453895 0.375361 0.226222
1486 1 0.240448 0.418136 0.140151
1728 1 0.319837 0.392336 0.0486069
1040 1 0.491546 0.235463 0.420562
1286 1 0.428939 0.468605 0.166507
612 1 0.410628 0.280764 0.0233045
302 1 0.383433 0.458539 0.425062
1364 1 0.101115 0.356683 0.0892532
1849 1 0.469705 0.0455922 0.458723
1549 1 0.374191 0.289598 0.440345
741 1 0.143028 0.129208 0.300185
1634 1 0.352545 0.0163774 0.11829
568 1 0.300287 0.155081 0.0780146
788 1 0.376821 0.150191 0.0436458
550 1 0.442755 0.147891 0.193244
496 1 0.179646 0.241636 0.100573
1902 1 0.402668 0.191262 0.110507
325 1 0.499288 0.0998612 0.17047
718 1 0.360075 0.32882 0.361883
1215 1 0.182222 0.0956322 0.13422
693 1 0.281665 0.259608 0.271943
580 1 0.344827 0.16813 0.14938
423 1 0.439643 0.280556 0.181933
348 1 0.239207 0.360948 0.196175
1959 1 0.128685 0.20117 0.475112
116 1 0.473684 0.229429 0.0516739
1367 1 0.313659 0.0954341 0.269292
1748 1 0.377359 0.448467 0.111091
442 1 0.376402 0.413622 0.177572
970 1 0.497883 0.13656 0.430819
1049 1 0.360962 0.39138 0.278393
1650 1 0.170814 0.374243 0.172373
1193 1 0.286283 0.457328 0.185014
1480 1 0.403679 0.376095 0.0475034
1105 1 0.251896 0.367403 0.0426291
850 1 0.220592 0.466991 0.283634
1306 1 0.0428953 0.227642 0.154036
1395 1 0.310995 0.332777 0.211189
830 1 0.130672 0.433343 0.211512
1455 1 0.129486 0.436539 0.0999674
436 1 0.344802 0.247874 0.166388
1619 1 0.220778 0.0467862 0.331464
1651 1 0.273733 0.195347 0.159576
609 1 0.199169 0.325528 0.465265
1230 1 0.201428 0.294412 0.0526416
186 1 0.126093 0.149271 0.160018
1533 1 0.159461 0.010874 0.280512
744 1 0.318557 0.224119 0.0988719
162 1 0.423719 0.0654215 0.285315
149 1 0.182609 0.206255 0.173305
80 1 0.29821 0.0163902 0.197494
643 1 0.0497644 0.169037 0.340123
558 1 0.220335 0.113558 0.301089
1019 1 0.250601 0.0923614 0.0874593
1895 1 0.0432634 0.0250311 0.0682845
1228 1 0.240568 0.341494 0.281678
717 1 0.259655 0.23272 0.343785
1910 1 0.313906 0.16428 0.233827
1099 1 0.473286 0.21795 0.133618
1887 1 0.0861819 0.105173 0.366173
839 1 0.128446 0.301263 0.35213
685 1 0.227196 0.326707 0.359456
1913 1 0.41283 0.26971 0.098922
1274 1 0.191013 0.389513 0.246969
539 1 0.151251 0.487238 0.153745
1733 1 0.326483 0.392471 0.404205
289 1 0.273747 0.146855 0.00858522
1015 1 0.42687 0.328449 0.320382
1844 1 0.0373453 0.0917901 0.422521
1037 1 0.158116 0.490927 0.341899
1448 1 0.123688 0.0971253 0.0848338
1668 1 0.218361 0.196018 0.429405
544 1 0.232569 0.066237 0.0167629
1288 1 0.255756 0.115692 0.170733
241 1 0.185712 0.141747 0.210101
1855 1 0.0700327 0.0234239 0.204298
1665 1 0.362983 0.10953 0.32186
265 1 0.0351548 0.0275099 0.272596
1119 1 0.376708 0.0315418 0.0425577
930 1 0.225692 0.0552196 0.252064
981 1 0.342662 0.20148 0.300861
553 1 0.238748 0.213396 0.228991
576 1 0.198738 0.193833 0.287456
106 1 0.385095 0.138718 0.249239
1676 1 0.169148 0.349986 0.312742
797 1 0.28608 0.399508 0.252466
1629 1 0.284829 0.441124 0.324582
1591 1 0.0410816 0.409107 0.264488
1291 1 0.469653 0.500496 0.101777
1746 1 0.0190239 0.301504 0.362674
1896 1 0.161895 0.351131 0.398613
107 1 0.448946 0.0834577 0.0655829
429 1 0.0543705 0.471552 0.194056
1869 1 0.142066 0.203219 0.238176
279 1 0.0529193 0.193428 0.269592
483 1 0.366077 0.210329 0.428536
1017 1 0.22218 0.0323399 0.144618
303 1 0.439804 0.164937 0.00615051
1175 1 0.222937 0.407489 0.338893
180 1 0.0132813 0.386538 0.114862
13 1 0.289358 0.218762 0.456193
647 1 0.125198 0.229135 0.305947
1400 1 0.322343 0.253035 0.384478
538 1 0.033847 0.374567 0.00954554
1106 1 0.0281791 0.103946 0.298204
1602 1 0.0240276 0.0447867 0.360852
482 1 0.378538 0.407218 0.355338
940 1 0.294735 0.36447 0.336278
493 1 0.422604 0.259816 0.377699
2032 1 0.136215 0.389058 0.0143651
1847 1 0.358762 0.314057 0.282396
51 1 0.180226 0.240013 0.362836
690 1 0.0548535 0.415432 0.413231
1299 1 0.238436 0.268694 0.408088
767 1 0.277482 0.173431 0.39148
1513 1 0.00320694 0.382485 0.485401
198 1 0.140352 0.0431327 0.177479
31 1 0.355269 0.488542 0.183523
2013 1 0.392385 0.356643 0.422259
386 1 0.463689 0.17256 0.276837
435 1 0.498374 0.435794 0.206936
69 1 0.44939 0.494488 0.4516
998 1 0.0127252 0.30664 0.494466
1312 1 0.40701 0.11072 0.126081
863 1 0.322926 0.0419687 0.467032
1287 1 0.111132 0.470779 0.430184
698 1 0.234136 0.374129 0.417749
2015 1 0.0498126 0.301904 0.111367
1806 1 0.441618 0.247599 0.284214
243 1 0.220593 0.432564 0.475839
1234 1 0.275402 0.165268 0.316722
1300 1 0.483709 0.220328 0.212102
749 1 0.354597 0.144022 0.395402
1663 1 0.280131 0.0106977 0.371953
824 1 0.134303 0.126394 0.425251
1066 1 0.464393 0.418366 0.105271
1661 1 0.287011 0.0963045 0.365823
1774 1 0.0503818 0.223427 0.472053
336 1 0.114542 0.385388 0.27064
960 1 0.278804 0.460285 0.432958
1501 1 0.209252 0.166345 0.355952
634 1 0.300133 0.111191 0.439901
1127 1 0.0582868 0.327673 0.269305
156 1 0.295659 0.324182 0.400149
641 1 0.126374 0.307624 0.0295607
1861 1 0.274633 0.300306 0.47937
1046 1 0.217776 0.110277 0.420869
992 1 0.433457 0.407247 0.298329
104 1 0.360687 0.24856 0.245792
160 1 0.150105 0.0455882 0.482379
1422 1 0.118081 0.179434 0.0890357
1135 1 0.0598597 0.087488 0.0101487
2038 1 0.104981 0.329599 0.169862
331 1 0.110889 0.0277261 0.392803
831 1 0.103999 0.467812 0.281858
601 1 0.026264 0.34377 0.180309
1221 1 0.410961 0.47643 0.0494233
1647 1 0.289552 0.386758 0.473219
1475 1 0.326995 0.0890772 0.0409505
366 1 0.020826 0.0143752 0.143097
657 1 0.124895 0.182513 0.374009
464 1 0.355401 0.0631235 0.388997
328 1 0.149596 0.267246 0.431847
619 1 0.407264 0.192067 0.338718
1713 1 0.186816 0.00466109 0.405243
1620 1 0.0638062 0.445188 0.0311433
579 1 0.0989214 0.0513609 0.307585
918 1 0.464341 0.325244 0.408518
1884 1 0.123179 0.395584 0.345626
1532 1 0.0636002 0.170257 0.201897
352 1 0.327831 0.0933304 0.155027
575 1 0.180589 0.138511 0.0223892
206 1 0.0132842 0.302009 0.0321091
143 1 0.401851 0.0141551 0.336128
1439 1 0.472941 0.436705 0.00664118
729 1 0.181776 0.121075 0.489557
613 1 0.329456 0.452669 0.492745
1013 1 0.499197 0.00782746 0.0508246
1610 1 0.493959 0.0991239 0.00899056
1823 1 0.41533 0.438142 0.492124
1401 1 0.484056 0.295987 0.0977489
986 1 0.100635 0.275473 0.497426
1070 1 0.492764 0.290552 0.2455
2026 1 0.44868 0.00829893 0.232942
738 1 0.00990781 0.495744 0.252768
140 1 0.452254 0.497133 0.23604
36 1 0.442225 0.0269091 0.00353545
424 1 0.000784144 0.297311 0.649137
931 1 0.195505 0.196282 0.509009
785 1 0.329439 0.103418 0.533031
1677 1 0.273305 0.0212776 0.718777
1924 1 0.328806 0.0806295 0.694418
101 1 0.495008 0.327388 0.805739
290 1 0.0650721 0.227023 0.784405
639 1 0.00793642 0.049948 0.676051
551 1 0.381259 0.351493 0.664065
597 1 0.471011 0.127469 0.932711
1465 1 0.473241 0.142471 0.676733
304 1 0.174694 0.436828 0.704475
1857 1 0.314775 0.0152712 0.824515
39 1 0.0585568 0.131961 0.859125
1409 1 0.063968 0.169311 0.669523
1742 1 0.369896 0.0375217 0.535677
1984 1 0.233413 0.438732 0.625336
1912 1 0.405745 0.195625 0.619951
342 1 0.163969 0.468576 0.996307
1941 1 0.47646 0.134717 0.762943
388 1 0.429771 0.131203 0.557948
2011 1 0.177875 0.262243 0.548042
1608 1 0.195735 0.34645 0.997783
1278 1 0.38157 0.178434 0.788059
1860 1 0.0868725 0.00403901 0.77344
1543 1 0.0688312 0.431332 0.640623
158 1 0.347966 0.140849 0.974286
1631 1 0.346375 0.359689 0.596102
67 1 0.261672 0.474787 0.548394
1125 1 0.427378 0.378394 0.731122
1470 1 0.477397 0.371099 0.563785
1271 1 0.398306 0.349303 0.903501
473 1 0.0317753 0.00457652 0.826783
1568 1 0.309183 0.19652 0.950364
65 1 0.216971 0.365019 0.909874
2008 1 0.476829 0.269708 0.528155
1102 1 0.336582 0.129237 0.606462
967 1 0.366855 0.44063 0.791351
1308 1 0.303786 0.274914 0.573458
1083 1 0.0130285 0.0530279 0.950614
168 1 0.339615 0.198387 0.657005
1064 1 0.425923 0.252333 0.678807
1812 1 0.393212 0.0184719 0.665705
1542 1 0.028781 0.376513 0.744033
503 1 0.066678 0.496926 0.778045
927 1 0.387492 0.00412823 0.863488
772 1 0.477604 0.224001 0.968694
746 1 0.354324 0.270344 0.963741
1109 1 0.483864 0.223019 0.635463
994 1 0.454755 0.0525155 0.693792
1449 1 0.266405 0.371952 0.6048
138 1 0.194645 0.230631 0.728264
261 1 0.219134 0.00166993 0.981121
40 1 0.101512 0.357513 0.581663
1253 1 0.217895 0.207653 0.974779
111 1 0.349073 0.0630389 0.905136
923 1 0.152905 0.222541 0.900963
130 1 0.0224229 0.310282 0.916911
1552 1 0.211039 0.4968 0.907036
275 1 0.459111 0.0461889 0.614245
1061 1 0.129486 0.113859 0.716715
110 1 0.261908 0.0944633 0.727474
1385 1 0.393146 0.144621 0.706738
1250 1 0.122358 0.124512 0.550015
34 1 0.205915 0.147735 0.705445
406 1 0.37206 0.270448 0.617995
211 1 0.471329 0.195711 0.564072
201 1 0.429849 0.0646895 0.932574
173 1 0.0888244 0.0334651 0.958379
1951 1 0.00776697 0.392166 0.911338
1942 1 0.063979 0.279596 0.587397
1298 1 0.0481888 0.0601516 0.746577
975 1 0.309675 0.303382 0.800353
510 1 0.149511 0.0177855 0.914801
2014 1 0.494014 0.336648 0.67072
928 1 0.144196 0.385479 0.644145
170 1 0.195153 0.0532007 0.615645
2001 1 0.321742 0.251881 0.878845
1652 1 0.0126415 0.232092 0.537483
1503 1 0.124078 0.0382847 0.704012
937 1 0.295683 0.351984 0.679177
1616 1 0.185337 0.402028 0.556649
713 1 0.305877 0.272299 0.651085
1655 1 0.341622 0.221602 0.738425
504 1 0.342324 0.208375 0.57956
397 1 0.487212 0.268937 0.720379
926 1 0.0157369 0.490582 0.658551
2021 1 0.023297 0.0719445 0.552825
403 1 0.48649 0.353852 0.875091
27 1 0.311777 0.0419017 0.634373
842 1 0.144885 0.199259 0.674024
1838 1 0.267932 0.0728049 0.575434
1191 1 0.112632 0.100475 0.906208
1378 1 0.12738 0.0428835 0.566458
1636 1 0.133244 0.0970331 0.637584
1103 1 0.224037 0.296243 0.689663
1284 1 0.432967 0.401632 0.628501
1579 1 0.242522 0.33108 0.542722
1572 1 0.142453 0.324324 0.688489
396 1 0.233399 0.243109 0.614367
1882 1 0.203735 0.282512 0.80003
215 1 0.355461 0.302526 0.721501
1840 1 0.0183577 0.21888 0.716153
1596 1 0.204596 0.325473 0.608293
1772 1 0.0486492 0.477253 0.584979
910 1 0.271427 0.165662 0.586762
513 1 0.432096 0.48518 0.620829
462 1 0.269453 0.357848 0.964608
62 1 0.264054 0.252361 0.745469
662 1 0.450668 0.316901 0.616215
234 1 0.164967 0.469862 0.629463
894 1 0.0739171 0.252294 0.660893
625 1 0.500494 0.0351571 0.800274
248 1 0.382711 0.413061 0.559371
112 1 0.0561121 0.452137 0.71785
418 1 0.0242321 0.218564 0.614143
1327 1 0.435989 0.146303 0.834538
119 1 0.460396 0.246036 0.806393
1557 1 0.300558 0.158297 0.754536
30 1 0.181598 0.120803 0.790459
1375 1 0.211018 0.0452661 0.536716
15 1 0.372827 0.0097175 0.737525
1240 1 0.116753 0.182064 0.832668
54 1 0.206373 0.170515 0.63228
8 1 0.475454 0.466382 0.705742
750 1 0.442423 0.195503 0.731805
758 1 0.258368 0.109768 0.644311
1903 1 0.14632 0.338003 0.526917
2039 1 0.172574 0.297432 0.888377
1778 1 0.328197 0.174824 0.510255
773 1 0.305126 0.403032 0.545551
861 1 0.086752 0.349439 0.947672
6 1 0.397573 0.272543 0.871538
305 1 0.300994 0.494043 0.666952
68 1 0.0624883 0.237953 0.952722
1698 1 0.218278 0.383834 0.671626
1615 1 0.0286972 0.363524 0.626915
1928 1 0.340771 0.417675 0.656098
915 1 0.250132 0.284326 0.866702
189 1 0.427618 0.306699 0.756486
1153 1 0.191503 0.0732411 0.949002
411 1 0.156821 0.0422843 0.774394
214 1 0.383425 0.198713 0.871525
60 1 0.41406 0.0768209 0.84766
1755 1 0.342847 0.369144 0.830865
1372 1 0.068771 0.429521 0.950382
934 1 0.0470706 0.289579 0.826182
1483 1 0.270768 0.0677902 0.795632
311 1 0.197151 0.0594807 0.695046
851 1 0.34123 0.477925 0.731414
2028 1 0.109108 0.216484 0.580752
1831 1 0.104276 0.265526 0.727938
1555 1 0.196489 0.217139 0.838626
1089 1 0.390496 0.488592 0.539697
332 1 0.3024 0.332293 0.894455
800 1 0.108976 0.325865 0.86247
394 1 0.231432 0.178147 0.775997
5 1 0.163042 0.336059 0.768261
1087 1 0.12522 0.448076 0.815116
283 1 0.309764 0.0338506 0.988764
1905 1 0.378024 0.263469 0.803113
512 1 0.343162 0.25389 0.50121
236 1 0.0617818 0.333574 0.684983
2043 1 0.111559 0.385709 0.724638
338 1 0.330826 0.365783 0.751484
466 1 0.466378 0.446813 0.559711
105 1 0.253655 0.351265 0.740841
1414 1 0.157751 0.265473 0.640744
1162 1 0.357984 0.352766 0.508912
1953 1 0.266677 0.19803 0.686154
1311 1 0.0651136 0.0662854 0.618893
670 1 0.236183 0.474717 0.727123
1471 1 0.0822262 0.186255 0.903013
468 1 0.0448989 0.11877 0.943568
2045 1 0.460063 0.496594 0.9175
745 1 0.226835 0.142547 0.932396
1515 1 0.413636 0.337511 0.825894
286 1 0.401391 0.188893 0.945099
1781 1 0.261706 0.443147 0.938789
1933 1 0.320126 0.13822 0.881603
1517 1 0.12401 0.269794 0.807172
445 1 0.0328097 0.364904 0.839305
1972 1 0.09957 0.366729 0.798915
1472 1 0.156331 0.419289 0.938222
228 1 0.177345 0.382853 0.847075
1407 1 0.118411 0.446235 0.571912
1901 1 0.00759938 0.491406 0.884598
1940 1 0.285263 0.227593 0.818776
1846 1 0.404983 0.297203 0.537301
1245 1 0.405854 0.485597 0.973354
968 1 0.0925592 0.397301 0.884791
321 1 0.290411 0.424354 0.784809
1189 1 0.38684 0.413809 0.986288
1864 1 0.444432 0.049638 0.53463
150 1 0.110657 0.184502 0.741974
1613 1 0.210219 0.409703 0.767826
2029 1 0.00197062 0.440351 0.98189
1765 1 0.330281 0.469252 0.579407
620 1 0.349772 0.108125 0.80908
1811 1 0.147278 0.169824 0.954808
453 1 0.268068 0.0671469 0.890459
957 1 0.349287 0.344205 0.988246
739 1 0.478785 0.0107112 0.885007
561 1 0.147941 0.491435 0.75374
1971 1 0.492102 0.13383 0.60269
146 1 0.254395 0.14167 0.841709
1729 1 0.476239 0.444843 0.86071
1821 1 0.260609 0.227904 0.536809
1039 1 0.15253 0.482558 0.504845
1768 1 0.0880584 0.256367 0.882482
974 1 0.458887 0.279822 0.919927
66 1 0.0843564 0.0447836 0.867089
587 1 0.195104 0.1224 0.57179
1595 1 0.201475 0.0601586 0.864188
17 1 0.468949 0.215564 0.876744
1485 1 0.2943 0.0957259 0.949352
1297 1 0.414402 0.0862845 0.757198
1081 1 0.280583 0.404957 0.86935
282 1 0.334582 0.396523 0.923736
1872 1 0.434274 0.334913 0.97235
1263 1 0.342022 0.479561 0.93053
1560 1 0.0499043 0.435291 0.820195
1709 1 0.243073 0.352516 0.822797
1036 1 0.0492789 0.136183 0.753627
1047 1 0.40117 0.450449 0.696488
1280 1 0.212369 0.456181 0.829792
983 1 0.334852 0.462306 0.85872
2003 1 0.300835 0.00831392 0.55912
1987 1 0.453598 0.433469 0.781902
1326 1 0.0178879 0.299289 0.737311
701 1 0.399685 0.089697 0.640682
1337 1 0.404974 0.220681 0.543594
1599 1 0.279818 0.421424 0.707865
1160 1 0.400384 0.415645 0.857987
1813 1 0.243122 0.277175 0.968914
218 1 0.391623 0.125939 0.904482
548 1 0.109297 0.100628 0.79768
433 1 0.170427 0.150634 0.877496
667 1 0.0548206 0.407141 0.555495
141 1 0.44895 0.409094 0.936547
350 1 0.0536055 0.169673 0.525914
1943 1 0.0333669 0.14375 0.596234
448 1 0.248486 0.215684 0.904791
367 1 0.12771 0.283496 0.954337
1386 1 0.00127693 0.125002 0.682449
488 1 0.396553 0.0939775 0.999014
751 1 0.255509 0.0990682 0.507172
1522 1 0.0877052 0.495274 0.855212
2044 1 0.0262916 0.661517 0.280258
43 1 0.472924 0.589603 0.351152
357 1 0.257033 0.795125 0.137407
163 1 0.0607234 0.552334 0.0540467
3 1 0.467313 0.719812 0.316562
407 1 0.466344 0.891579 0.461249
1264 1 0.287373 0.591783 0.495132
1702 1 0.309904 0.892091 0.44292
262 1 0.497292 0.511083 0.351483
622 1 0.252525 0.760622 0.416844
879 1 0.193689 0.591085 0.182694
1498 1 0.253667 0.965344 0.163316
210 1 0.386062 0.913138 0.418332
902 1 0.171251 0.690206 0.368074
1785 1 0.19698 0.552234 0.351857
1818 1 0.454353 0.732362 0.104947
793 1 0.247255 0.688734 0.00272844
1571 1 0.337594 0.744939 0.268887
2040 1 0.21147 0.646456 0.12216
1753 1 0.0196634 0.554585 0.306691
1329 1 0.0369705 0.708133 0.0701257
322 1 0.0400902 0.982365 0.408239
989 1 0.389074 0.619969 0.363053
637 1 0.482002 0.771228 0.254007
355 1 0.277868 0.977356 0.445279
1594 1 0.155311 0.767117 0.400836
467 1 0.311362 0.911445 0.181501
441 1 0.0304251 0.566581 0.388464
335 1 0.114363 0.831632 0.134634
2012 1 0.141128 0.570161 0.0241793
1491 1 0.367102 0.976542 0.186954
1832 1 0.173075 0.907009 0.457272
921 1 0.264312 0.643651 0.0624306
578 1 0.0468178 0.908693 0.320752
2020 1 0.0310318 0.665348 0.00146919
980 1 0.280607 0.929861 0.0938833
1255 1 0.0551229 0.680145 0.474673
92 1 0.0846556 0.828637 0.0547158
807 1 0.449383 0.577591 0.258683
1536 1 0.049412 0.952268 0.251217
778 1 0.160007 0.773768 0.111025
1222 1 0.203457 0.744963 0.0451822
765 1 0.127398 0.976099 0.13913
1992 1 0.115336 0.975565 0.052957
1005 1 0.12633 0.508401 0.066895
246 1 0.209056 0.536628 -0.00263585
726 1 0.177251 0.522969 0.441639
446 1 0.420786 0.973862 0.0826868
480 1 0.393555 0.694171 0.0251276
1281 1 0.0158959 0.944745 0.170842
361 1 0.0924943 0.896452 0.0170012
715 1 0.428637 0.810707 0.112506
929 1 0.46633 0.617482 0.13724
1577 1 0.390546 0.637076 0.111578
389 1 0.346912 0.775244 0.0542566
1657 1 0.493049 0.8118 0.337219
867 1 0.0298195 0.858125 0.489131
412 1 0.112892 0.554784 0.374145
1346 1 0.469402 0.637872 0.208418
1142 1 0.41791 0.587819 0.0624062
264 1 0.428186 0.51817 0.310652
559 1 0.274345 0.65084 0.444226
651 1 0.332965 0.599861 0.259861
852 1 0.486036 0.945884 0.108274
497 1 0.432343 0.889194 0.0945287
344 1 0.371391 0.909693 0.234747
899 1 0.404687 0.929168 0.0174522
1531 1 0.270667 0.598066 0.162091
1097 1 0.118563 0.74005 0.0515615
2034 1 0.0891323 0.645314 0.0821674
721 1 0.261173 0.633724 0.231555
734 1 0.366012 0.586081 0.164144
1178 1 0.477988 0.787769 0.174417
19 1 0.386788 0.753991 0.197416
477 1 0.341794 0.543826 0.0562239
506 1 0.170785 0.565235 0.274403
1740 1 0.266728 0.679994 0.165669
1566 1 0.339626 0.841331 0.221633
323 1 0.416119 0.870155 0.164997
1342 1 0.424846 0.602599 0.434783
1164 1 0.136077 0.581189 0.118315
1642 1 0.168585 0.922633 0.0275731
1546 1 0.0801842 0.538347 0.252553
925 1 0.0468346 0.94127 0.0762488
1535 1 0.182719 0.856367 0.0892624
1201 1 0.180993 0.819802 0.186985
1379 1 0.395913 0.528146 0.117231
1769 1 0.0894994 0.829447 0.45067
430 1 0.456574 0.972485 0.472305
1908 1 0.0795378 0.647659 0.164359
1402 1 0.306551 0.543049 0.215008
1421 1 0.28424 0.517284 0.316039
1348 1 0.392628 0.635992 0.222123
372 1 0.0738846 0.980591 0.329035
1827 1 0.44574 0.938651 0.181602
292 1 0.0524544 0.716447 0.188873
1324 1 0.465185 0.521125 0.029186
153 1 0.430279 0.65277 0.304642
455 1 0.408668 0.773259 0.291385
293 1 0.0449256 0.936197 0.471742
1169 1 0.26918 0.721993 0.229421
268 1 0.361701 0.877503 0.0543298
1856 1 0.197892 0.770584 0.475333
682 1 0.206777 0.744689 0.176948
1585 1 0.459722 0.66221 0.0734866
1075 1 -0.00333568 0.573769 0.00828678
869 1 0.438309 0.929122 0.263373
1687 1 0.440058 0.839573 0.0426969
1200 1 0.154278 0.695498 0.103927
633 1 0.423065 0.686169 0.165523
695 1 0.362074 0.915991 0.119371
674 1 0.497422 0.571573 0.444531
1186 1 0.322075 0.758758 0.163949
881 1 0.33564 0.965111 0.0538542
904 1 0.0893848 0.751034 0.124248
1074 1 0.350334 0.620354 0.02975
1054 1 0.274315 0.582935 0.0116694
1130 1 0.200746 0.638658 0.287665
1644 1 0.08264 0.611462 0.297995
1756 1 0.072957 0.670316 0.350122
1336 1 0.493973 0.749071 0.392599
608 1 0.35861 0.871727 0.329239
438 1 0.00948786 0.627802 0.0661497
324 1 0.0779578 0.810187 0.2966
591 1 0.440518 0.706023 0.239311
1658 1 0.428248 0.859307 0.300765
46 1 0.247606 0.568213 0.410359
1195 1 0.115837 0.689567 0.273365
660 1 0.24307 0.571865 0.290998
501 1 0.11482 0.877924 0.286052
771 1 0.124613 0.711969 0.182688
202 1 0.329706 0.676174 0.214522
900 1 0.319277 0.813782 0.294232
896 1 0.117152 0.896978 0.0945449
731 1 0.225016 0.940597 0.410146
97 1 0.17736 0.897717 0.347576
24 1 0.291864 0.853327 0.073434
1231 1 0.251975 0.798025 0.215197
1656 1 0.0367776 0.588075 0.483946
459 1 0.23636 0.855888 0.477538
1957 1 0.407502 0.932915 0.334059
1490 1 0.185597 0.775641 0.253421
618 1 0.0817015 0.52792 0.156572
183 1 0.286029 0.914226 0.353765
1800 1 0.197206 0.976719 0.476874
117 1 0.139976 0.700901 0.459537
909 1 0.134499 0.973401 0.213434
1948 1 0.470985 0.669013 0.377565
1131 1 0.044097 0.827825 0.1896
144 1 0.429271 0.824308 0.226154
942 1 0.0199755 0.86502 0.0506147
494 1 0.00854806 0.712719 0.363945
301 1 0.440742 0.549945 0.177869
205 1 0.358164 0.67217 0.286636
1946 1 0.0445812 0.736707 0.296911
86 1 0.0812338 0.73046 0.423523
1545 1 0.143576 0.513676 0.223143
684 1 0.317198 0.662458 0.373734
681 1 0.254869 0.77008 0.288302
743 1 0.196478 0.684588 0.218498
1403 1 0.196801 0.860658 0.256956
1441 1 0.29497 0.88711 0.263554
498 1 0.341535 0.594034 0.417927
220 1 0.120619 0.912522 0.392939
766 1 0.286879 0.665334 0.295167
871 1 0.0164004 0.786926 0.0799167
1032 1 0.379273 0.82663 0.447214
654 1 0.0531693 0.762744 0.00789853
1977 1 0.114397 0.836271 0.223789
1505 1 0.105244 0.761377 0.239222
997 1 0.436356 0.872035 0.376333
1976 1 0.323253 0.610469 0.0997175
1410 1 0.148497 0.623269 0.335618
251 1 0.344305 0.825213 0.118584
75 1 0.240997 0.943877 0.0306891
178 1 0.138146 0.627981 0.217378
696 1 0.0227705 0.607594 0.137112
712 1 0.0990402 0.54448 0.458875
1 1 0.423125 0.766324 0.0478675
527 1 0.0513966 0.612848 0.224904
364 1 0.372224 0.985243 0.454811
1209 1 0.184984 0.641331 0.0492763
204 1 0.489803 0.711302 0.181093
588 1 0.273719 0.783336 0.0249977
1000 1 0.0177007 0.78001 0.443145
1985 1 0.312874 0.754108 0.352095
470 1 0.461253 0.817085 0.4648
250 1 0.371942 0.538394 0.468763
225 1 0.10111 0.894262 0.492751
532 1 0.294085 0.591148 0.343945
1353 1 0.221491 0.629185 0.359678
543 1 0.217381 0.699727 0.447454
1391 1 0.196156 0.925266 0.137443
1128 1 0.0498979 0.783442 0.364823
1016 1 0.0454639 0.88177 0.123979
2048 1 0.305913 0.525943 0.123213
1641 1 0.154753 0.819842 0.316002
1752 1 0.38476 0.794849 0.366205
401 1 0.232749 0.965426 0.331851
1371 1 0.212931 0.776927 0.355055
1693 1 0.264842 0.988889 0.26986
1219 1 0.312719 0.827157 0.381662
1839 1 0.323853 0.512136 0.401451
1420 1 0.496943 0.842311 0.0957367
791 1 0.252163 0.87174 0.141352
1148 1 0.257782 0.717956 0.101371
1350 1 0.365091 0.565036 0.321228
924 1 0.387887 0.69118 0.440496
679 1 0.0791089 0.620377 0.41393
155 1 0.155566 0.603225 0.415359
229 1 0.11826 0.96645 0.443787
1724 1 0.107883 0.626655 0.481944
363 1 0.251931 0.70156 0.363345
1790 1 0.140429 0.889176 0.179404
1649 1 0.391743 0.691944 0.358767
1123 1 0.418292 0.534992 0.387456
1639 1 0.3291 0.690262 0.0732844
193 1 0.115661 0.734034 0.337556
573 1 0.328841 0.946461 0.295425
165 1 0.0404744 0.862927 0.404592
1637 1 0.481224 0.703533 0.450776
1388 1 0.201951 0.548796 0.0808913
1890 1 0.383857 0.545307 0.241785
1206 1 0.173877 0.930339 0.275367
1671 1 0.411212 0.760312 0.43271
1949 1 0.264334 0.516077 0.0564279
452 1 0.143961 0.965331 0.34405
645 1 0.0088073 0.761824 0.152144
1496 1 0.251252 0.847599 0.320825
393 1 0.227178 0.922343 0.216661
1994 1 0.223397 0.503332 0.145494
1044 1 0.116843 0.836202 0.37735
1525 1 0.186653 0.711282 0.292519
838 1 0.192055 0.624519 0.486053
1696 1 0.229766 0.867861 0.401932
1606 1 0.167229 0.832134 0.432131
1116 1 0.226766 0.520713 0.232143
1140 1 0.314731 0.715228 0.43268
1468 1 0.38124 0.737495 0.120143
542 1 0.0355351 0.858733 0.25739
2017 1 0.29099 0.801324 0.480356
1203 1 0.349257 0.968194 0.377798
872 1 0.477208 0.712783 0.0199247
589 1 0.497686 0.582213 0.062421
451 1 0.434797 0.984403 0.402922
1808 1 0.257689 0.515047 0.485077
646 1 0.014376 0.840692 0.328257
1967 1 0.00446991 0.639431 0.434784
1548 1 0.0030176 0.782035 0.24187
476 1 -0.000728734 0.978683 0.321882
950 1 0.121617 0.641797 0.00681116
1678 1 0.382565 0.994142 0.263528
1396 1 0.36798 0.618389 0.486188
1730 1 0.296428 0.890413 0.00947169
1333 1 0.480607 0.94978 0.31923
1354 1 0.00415279 0.542223 0.187911
1793 1 0.489372 0.878089 0.174682
1158 1 0.0140966 0.506813 0.442388
337 1 0.212273 0.843733 0.00935147
1614 1 0.438994 0.631795 0.00436899
1301 1 0.405818 0.927041 0.497327
1338 1 0.0430593 0.984959 0.0054427
1653 1 0.321225 0.721497 0.0035372
987 1 0.00643929 0.637538 0.356712
844 1 0.382169 0.772712 0.97077
491 1 0.404227 0.50737 0.870741
1897 1 0.250914 0.645279 0.642164
993 1 0.266983 0.902591 0.89611
164 1 0.0179219 0.609977 0.933668
402 1 0.0853706 0.63541 0.701614
245 1 0.104394 0.752595 0.587847
58 1 0.434633 0.670504 0.692872
457 1 0.0754153 0.771777 0.714847
706 1 0.493846 0.567644 0.829259
2031 1 0.446338 0.983171 0.808066
1803 1 0.471772 0.912775 0.681706
1499 1 0.0608656 0.709004 0.654644
1894 1 0.413106 0.942772 0.736968
280 1 0.00757629 0.605143 0.689251
1446 1 0.497435 0.715982 0.649405
1213 1 0.35159 0.825421 0.60471
1518 1 0.333288 0.557032 0.836288
1934 1 0.488961 0.574556 0.984465
1981 1 0.174831 0.77527 0.572949
958 1 0.47707 0.649022 0.835833
1427 1 0.107763 0.962272 0.517819
91 1 0.333344 0.825003 0.994301
655 1 0.3711 0.992602 0.593747
961 1 0.275523 0.511448 0.963725
1889 1 0.187137 0.709113 0.522561
315 1 0.213944 0.540554 0.781645
688 1 0.379111 0.651788 0.953833
1727 1 0.403401 0.58406 0.894843
1597 1 0.144468 0.58433 0.706007
1736 1 0.449535 0.543691 0.529759
554 1 0.45088 0.740809 0.594986
172 1 0.4334 0.664483 0.606463
1041 1 0.0354958 0.641773 0.619458
1340 1 0.434338 0.576652 0.595799
1050 1 0.370381 0.620375 0.56953
485 1 0.452963 0.648547 0.909928
890 1 0.309706 0.639578 0.697053
1114 1 0.25809 0.653967 0.524175
1428 1 0.135328 0.724175 0.670171
471 1 0.304759 0.673147 0.586479
171 1 0.101778 0.680496 0.534142
1453 1 0.322481 0.757878 0.55758
291 1 0.266864 0.874351 0.631546
295 1 0.256878 0.775281 0.593302
508 1 0.0433998 0.899614 0.641487
878 1 0.257976 0.73612 0.510767
1383 1 0.498749 0.976064 0.636886
1021 1 0.0676824 0.914865 0.561874
995 1 0.288185 0.731425 0.659801
1879 1 0.0725907 0.814861 0.635911
956 1 0.310517 0.923411 0.591856
1432 1 0.347927 0.891122 0.650304
1261 1 0.123374 0.676767 0.60747
1741 1 0.114732 0.905567 0.669232
207 1 0.426525 0.926698 0.854736
1145 1 0.0351531 0.707949 0.56039
1960 1 0.0417069 0.563398 0.635444
999 1 0.189419 0.521891 0.691641
908 1 0.411966 0.552281 0.674366
1582 1 0.466623 0.840567 0.705856
1344 1 0.0782435 0.836305 0.545491
529 1 0.175877 0.658525 0.742369
329 1 0.197197 0.576684 0.631882
79 1 0.0525686 0.993583 0.560671
1870 1 0.230588 0.700423 0.578779
2047 1 0.375275 0.953906 0.80477
56 1 0.155144 0.835529 0.515584
273 1 0.233582 0.715367 0.710534
2006 1 0.365188 0.752811 0.632504
103 1 0.0430094 0.637885 0.542909
585 1 0.0791108 0.698079 0.753468
151 1 0.188778 0.780054 0.701692
669 1 0.422625 0.761416 0.682446
1154 1 0.260802 0.812051 0.670778
949 1 0.160584 0.51347 0.834113
522 1 0.257244 0.536147 0.613388
1749 1 0.197566 0.828596 0.629953
616 1 0.308899 0.910122 0.710555
1982 1 0.120421 0.9816 0.63446
343 1 0.275423 0.841068 0.941443
1481 1 0.457725 0.724473 0.821573
789 1 0.467765 0.787585 0.98538
835 1 0.416339 0.950226 0.640162
1182 1 0.13771 0.864019 0.599096
26 1 0.230725 0.58392 0.558316
387 1 0.284648 0.836724 0.559958
184 1 0.408785 0.801585 0.817237
876 1 0.127463 0.930239 0.794029
1315 1 0.00434675 0.697091 0.714674
1302 1 0.128181 0.828788 0.898904
444 1 0.434204 0.877138 0.767161
1096 1 0.339576 0.556083 0.697814
2016 1 0.180331 0.608211 0.800829
1431 1 0.142389 0.977803 0.981642
727 1 0.244866 0.75907 0.770101
704 1 0.305395 0.899892 0.828305
1521 1 0.396495 0.683153 0.773133
195 1 0.305996 0.595447 0.634034
1356 1 0.346009 0.859503 0.509901
319 1 0.0987487 0.629639 0.916998
592 1 0.356545 0.750045 0.769282
565 1 0.472201 0.913868 0.603692
131 1 0.0674662 0.992155 0.703264
1247 1 0.0152899 0.837169 0.692824
596 1 0.214747 0.867796 0.56618
1680 1 0.388673 0.774528 0.502777
490 1 0.0258919 0.554668 0.55425
648 1 0.440195 0.670128 0.517172
217 1 0.351846 0.874891 0.768719
566 1 0.0166696 0.967469 0.62607
28 1 0.347538 0.555165 0.542932
1143 1 0.218464 0.621621 0.979911
877 1 0.0302783 0.919762 0.977099