ITEM: TIMESTEP
100000
ITEM: NUMBER OF ATOMS
2048
ITEM: BOX BOUNDS pp pp pp
0.0000000000000000e+00 1.1093780389610155e+01
0.0000000000000000e+00 1.1093780389610155e+01
0.0000000000000000e+00 1.1093780389610155e+01
ITEM: ATOMS id type xs ys zs
262 1 0.18906 0.0640465 0.497052
1028 1 0.496872 0.0632495 0.0666844
289 1 0.000989241 0.249629 0.499985
23 1 0.188587 0.126977 0.0572282
12 1 0.252528 0.0652714 0.0623916
141 1 0.376988 -0.000299103 0.250198
7 1 0.190302 0.0048567 0.0628269
19 1 0.0589191 0.124471 0.0584081
24 1 0.121783 0.189157 0.0601374
28 1 0.251822 0.191008 0.0609053
39 1 0.185868 0.247564 0.0625493
32 1 0.373478 0.189177 0.0601875
35 1 0.0601267 0.247708 0.0588934
43 1 0.314013 0.251872 0.0634116
47 1 0.439753 0.248794 0.060234
48 1 0.377018 0.309324 0.0610957
68 1 -0.000185494 0.0615002 0.186324
51 1 0.0621788 0.371517 0.0650004
1076 1 0.499876 0.441661 0.0634813
59 1 0.309844 0.377785 0.0632872
1089 1 0.499245 -0.000532233 0.12811
55 1 0.183777 0.371267 0.0597438
60 1 0.251489 0.438941 0.0674842
519 1 0.19053 0.497684 0.0604004
1137 1 0.49487 0.37784 0.124562
56 1 0.122797 0.435561 0.0635381
781 1 0.376892 0.499742 0.499249
277 1 0.128977 0.125283 0.49997
244 1 0.00408422 0.439541 0.438863
70 1 0.187779 0.0649995 0.121541
205 1 0.374081 0.000523164 0.376162
16 1 0.37654 0.0606531 0.0648387
131 1 0.0614323 0.00516117 0.310449
66 1 0.0653446 0.0655475 0.123204
8 1 0.127769 0.0672966 0.0628062
89 1 0.248919 0.126148 0.125322
31 1 0.433815 0.12485 0.0614941
82 1 0.0619975 0.189593 0.123362
86 1 0.191514 0.186326 0.122516
27 1 0.317311 0.123295 0.0652814
207 1 0.441137 -0.000844305 0.440376
101 1 0.12579 0.24646 0.121938
105 1 0.248864 0.252101 0.122777
109 1 0.376347 0.2462 0.124965
40 1 0.120906 0.308701 0.0618545
44 1 0.25233 0.31424 0.0634677
98 1 0.0590613 0.308847 0.123638
102 1 0.185794 0.311706 0.124165
63 1 0.439588 0.377506 0.0582809
135 1 0.189838 0.000355408 0.310559
121 1 0.247827 0.375363 0.126675
122 1 0.31182 0.440103 0.127818
53 1 0.120657 0.373235 -0.0013167
64 1 0.372642 0.438954 0.0625859
126 1 0.433976 0.44251 0.127696
72 1 0.123791 0.0675799 0.187467
69 1 0.124817 0.00450868 0.122272
74 1 0.31127 0.058956 0.123256
1268 1 0.499561 0.435349 0.43714
85 1 0.124718 0.127301 0.12477
87 1 0.185409 0.127374 0.18499
91 1 0.310881 0.126916 0.179383
78 1 0.435595 0.0606209 0.129454
83 1 0.0640257 0.129678 0.185685
88 1 0.126517 0.190196 0.188248
92 1 0.247364 0.185081 0.188884
93 1 0.378319 0.124492 0.125516
94 1 0.437004 0.183401 0.122022
103 1 0.188102 0.249667 0.187407
90 1 0.311235 0.188735 0.123131
96 1 0.370115 0.186862 0.187733
99 1 0.0618666 0.246187 0.187327
106 1 0.314498 0.316253 0.121877
110 1 0.438201 0.308155 0.123802
258 1 0.0634342 0.061782 0.497903
104 1 0.12364 0.306732 0.183998
117 1 0.1255 0.372206 0.126099
119 1 0.187635 0.374398 0.187814
123 1 0.309192 0.374735 0.184068
251 1 0.309844 0.37697 0.436359
247 1 0.185626 0.375722 0.436431
124 1 0.248518 0.438838 0.189543
125 1 0.376947 0.378594 0.125583
145 1 0.00495179 0.125826 0.251164
114 1 0.064505 0.436541 0.125006
120 1 0.124022 0.436762 0.185628
118 1 0.185651 0.437674 0.125503
129 1 0.00282149 0.000781739 0.249837
71 1 0.187999 0.00561275 0.189213
715 1 0.311189 0.498924 0.434591
133 1 0.124583 0.00332884 0.252862
195 1 0.0598635 0.00245176 0.432475
134 1 0.186261 0.0664153 0.252622
1265 1 0.498749 0.380249 0.372639
76 1 0.248669 0.0646739 0.189438
1124 1 0.495302 0.308454 0.185385
236 1 0.249747 0.312708 0.439674
149 1 0.124234 0.127309 0.252619
80 1 0.372894 0.0586624 0.187148
153 1 0.251285 0.128627 0.251335
154 1 0.314692 0.1875 0.249217
95 1 0.437284 0.122671 0.186372
67 1 0.0615185 0.00143321 0.186835
169 1 0.250514 0.25007 0.250422
107 1 0.312602 0.24719 0.184761
203 1 0.317584 0.00366564 0.438785
162 1 0.0575332 0.310384 0.245944
165 1 0.120843 0.248312 0.250793
166 1 0.185477 0.312921 0.244208
108 1 0.254141 0.306987 0.186292
112 1 0.373579 0.31122 0.186207
111 1 0.439102 0.243974 0.189936
181 1 0.121036 0.374076 0.249793
127 1 0.438765 0.374381 0.185348
232 1 0.126139 0.314686 0.43724
115 1 0.0601594 0.377922 0.187569
178 1 0.0632701 0.440207 0.248906
189 1 0.375614 0.37373 0.24954
186 1 0.315231 0.437108 0.251631
128 1 0.376565 0.437172 0.186712
317 1 0.373144 0.376902 0.500118
130 1 0.0635344 0.0628458 0.246762
713 1 0.250821 0.496599 0.371423
14 1 0.439065 0.060376 0.000834712
50 1 0.0623862 0.436696 0.00343611
239 1 0.438512 0.250063 0.439464
136 1 0.126921 0.0678075 0.310599
151 1 0.189224 0.128738 0.312993
138 1 0.312749 0.0611288 0.248205
142 1 0.436676 0.063882 0.254081
240 1 0.372336 0.314284 0.442592
156 1 0.251566 0.187548 0.316523
157 1 0.374515 0.123568 0.253427
159 1 0.4402 0.124414 0.312819
146 1 0.0629998 0.188371 0.251437
150 1 0.186187 0.186321 0.251187
158 1 0.434376 0.181751 0.248833
173 1 0.376818 0.251094 0.248762
175 1 0.441747 0.25351 0.314937
171 1 0.312583 0.24933 0.312893
174 1 0.437675 0.313345 0.251966
1204 1 0.493595 0.441174 0.314717
179 1 0.0594935 0.37678 0.313081
168 1 0.122417 0.316489 0.308262
172 1 0.25055 0.312113 0.309622
185 1 0.248674 0.371305 0.249366
170 1 0.311499 0.310642 0.248373
182 1 0.184313 0.434706 0.248914
190 1 0.438521 0.436248 0.250237
79 1 0.4375 0.00101533 0.194317
199 1 0.186564 0.00280381 0.435696
192 1 0.373036 0.435439 0.316886
282 1 0.311636 0.189572 0.501323
266 1 0.314759 0.0621627 0.500265
194 1 0.05864 0.0645216 0.373598
143 1 0.438575 0.00206463 0.314976
655 1 0.434286 0.497339 0.310826
140 1 0.254642 0.059436 0.314128
204 1 0.250304 0.0607041 0.442309
219 1 0.315004 0.126515 0.436406
144 1 0.373901 0.0613207 0.316183
206 1 0.439764 0.062134 0.376872
254 1 0.434144 0.438655 0.37441
147 1 0.0604865 0.12666 0.315094
214 1 0.187867 0.187711 0.375928
217 1 0.254753 0.125433 0.374623
155 1 0.316554 0.123182 0.315936
160 1 0.374343 0.191164 0.312923
222 1 0.436368 0.185751 0.373396
152 1 0.127078 0.187858 0.314103
167 1 0.187492 0.249492 0.310964
218 1 0.314408 0.189724 0.378234
237 1 0.375665 0.251354 0.379545
163 1 0.0651269 0.24892 0.316434
233 1 0.246334 0.25058 0.376375
197 1 0.127314 0.00201882 0.368762
226 1 0.0611622 0.313965 0.375423
183 1 0.18347 0.372116 0.312936
234 1 0.31304 0.31577 0.377601
176 1 0.374066 0.312057 0.311285
15 1 0.444748 0.000762447 0.0646955
184 1 0.124999 0.439421 0.314004
242 1 0.0576855 0.43882 0.370409
188 1 0.244809 0.434717 0.30676
187 1 0.312882 0.373071 0.311142
249 1 0.2468 0.372976 0.375553
191 1 0.434913 0.376386 0.315774
208 1 0.379392 0.0626203 0.440728
211 1 0.0590474 0.122196 0.439365
215 1 0.188848 0.125788 0.439305
202 1 0.310367 0.0633786 0.376987
1092 1 0.497573 0.0623635 0.191807
200 1 0.12341 0.062487 0.435026
198 1 0.189058 0.0646831 0.374791
221 1 0.382188 0.121572 0.379193
223 1 0.443763 0.125994 0.439614
213 1 0.121499 0.124408 0.377605
224 1 0.376906 0.190253 0.437342
210 1 0.0619534 0.188031 0.374121
220 1 0.253602 0.185746 0.438365
216 1 0.130099 0.188689 0.439739
235 1 0.31072 0.252103 0.441185
231 1 0.18884 0.251161 0.440642
285 1 0.378224 0.125355 0.498777
286 1 0.44167 0.186641 0.498242
227 1 0.0631474 0.250059 0.433447
229 1 0.125004 0.250495 0.375897
230 1 0.183161 0.310176 0.374265
238 1 0.439333 0.31435 0.376401
1108 1 0.501092 0.181669 0.189784
243 1 0.0600245 0.377506 0.4375
245 1 0.123591 0.376854 0.377384
253 1 0.378544 0.374415 0.378835
255 1 0.437766 0.377632 0.435695
248 1 0.123705 0.434071 0.444287
246 1 0.186716 0.435603 0.37501
252 1 0.244218 0.438604 0.438755
250 1 0.311207 0.435232 0.37336
256 1 0.375276 0.437966 0.439153
711 1 0.184202 0.497024 0.437006
649 1 0.252798 0.498444 0.253376
515 1 0.0651754 0.495948 0.0673517
719 1 0.437153 0.499171 0.435587
177 1 0.000895469 0.375289 0.252885
1153 1 0.499622 0.00314462 0.250913
587 1 0.310457 0.500596 0.188811
645 1 0.124312 0.497775 0.249794
651 1 0.312479 0.496504 0.313892
647 1 0.186942 0.498595 0.311889
212 1 -0.000550185 0.188164 0.436434
1140 1 0.498981 0.439033 0.187846
54 1 0.185196 0.436012 0.0016946
4 1 -0.000416151 0.0627095 0.0681389
1060 1 0.499644 0.310731 0.0590612
1105 1 0.497765 0.125295 0.122407
261 1 0.11875 0.00199843 0.498375
3 1 0.0624264 0.00507223 0.0668453
9 1 0.249835 0.00260275 0.000654203
2 1 0.063788 0.0593262 0.00427368
270 1 0.440706 0.0623011 0.498394
290 1 0.0608679 0.314781 0.497679
513 1 0.00377912 0.499635 0.00301997
10 1 0.316488 0.0612504 0.00407954
49 1 0.00129868 0.374204 0.00248282
42 1 0.310846 0.315419 0.0029532
517 1 0.122992 0.497607 0.00268149
41 1 0.250238 0.253571 0.002024
5 1 0.128294 0.00276903 0.00391661
314 1 0.313063 0.436878 0.495956
1460 1 0.497777 0.435125 0.810424
369 1 0.00229179 0.380774 0.626711
779 1 0.308593 0.498724 0.559036
292 1 0.000895981 0.312951 0.562701
963 1 0.0660483 0.499294 0.938965
388 1 0.00374732 0.0622822 0.80827
275 1 0.0623402 0.124376 0.561482
279 1 0.191013 0.120982 0.562547
268 1 0.252306 0.059263 0.561411
461 1 0.37237 0.0021714 0.876809
1457 1 0.497951 0.37359 0.74446
280 1 0.121656 0.189604 0.564904
500 1 -0.00149123 0.442086 0.939872
287 1 0.438971 0.124118 0.564098
291 1 0.0582977 0.250529 0.560578
284 1 0.252066 0.188672 0.562731
845 1 0.370283 0.498847 0.624217
58 1 0.31056 0.432493 0.996159
1492 1 0.499627 0.183026 0.93274
295 1 0.181617 0.246863 0.562235
300 1 0.25172 0.314831 0.565773
303 1 0.437344 0.251495 0.562597
307 1 0.0618678 0.380534 0.560713
298 1 0.308182 0.317318 0.50102
18 1 0.0604056 0.183337 0.999856
1428 1 0.496789 0.184574 0.808478
304 1 0.368442 0.314131 0.564157
6 1 0.187911 0.0638974 0.999026
771 1 0.0585086 0.498727 0.564925
1364 1 0.499358 0.184958 0.690391
301 1 0.374778 0.246307 0.500417
508 1 0.248119 0.444137 0.936218
322 1 0.061711 0.064605 0.622914
264 1 0.126075 0.0619764 0.558519
436 1 0.00169738 0.436389 0.813279
272 1 0.375316 0.0656 0.561369
341 1 0.129057 0.122368 0.623173
345 1 0.254451 0.126771 0.624988
46 1 0.438347 0.313887 0.997625
338 1 0.0602669 0.190243 0.623256
283 1 0.316653 0.125057 0.564677
357 1 0.12265 0.250441 0.623233
342 1 0.190134 0.190604 0.620337
288 1 0.374943 0.188204 0.561634
350 1 0.438373 0.184925 0.623907
354 1 0.059209 0.3136 0.624271
296 1 0.124981 0.312106 0.567325
361 1 0.248954 0.250159 0.620875
299 1 0.313332 0.25076 0.565322
373 1 0.12325 0.377325 0.621789
358 1 0.188213 0.311135 0.626059
381 1 0.371024 0.379652 0.625092
319 1 0.431756 0.377543 0.565248
366 1 0.430914 0.317283 0.623592
370 1 0.0648484 0.439745 0.62622
312 1 0.125384 0.439118 0.56636
311 1 0.186806 0.376567 0.562755
315 1 0.315094 0.380701 0.561236
62 1 0.433138 0.43987 1.00139
316 1 0.246365 0.441665 0.562417
420 1 0.000626073 0.311365 0.815173
320 1 0.373558 0.440525 0.557227
382 1 0.43312 0.4413 0.627655
504 1 0.123606 0.434569 0.937984
1332 1 0.500276 0.440238 0.559977
417 1 0.00303315 0.250005 0.747528
336 1 0.373617 0.0607825 0.683843
326 1 0.188855 0.0624787 0.625867
330 1 0.310296 0.0610346 0.625652
347 1 0.313682 0.126548 0.686079
334 1 0.439484 0.0638719 0.625752
348 1 0.252222 0.186421 0.684342
346 1 0.314395 0.188431 0.622318
349 1 0.376807 0.125179 0.625939
503 1 0.18582 0.376633 0.941154
391 1 0.188918 0.00539671 0.811401
352 1 0.372013 0.190991 0.685635
1857 1 0.49956 0.498645 0.626185
360 1 0.126821 0.313356 0.690776
359 1 0.187407 0.249401 0.684887
363 1 0.312823 0.246062 0.6839
365 1 0.378727 0.248576 0.626135
368 1 0.370084 0.31223 0.685726
61 1 0.374936 0.37393 0.995962
375 1 0.187628 0.379739 0.687463
362 1 0.311339 0.313302 0.625749
364 1 0.250925 0.30752 0.683306
459 1 0.310874 0.00241735 0.937408
371 1 0.06558 0.372749 0.687232
377 1 0.246297 0.38001 0.621426
384 1 0.371268 0.438792 0.688056
376 1 0.123812 0.438608 0.686525
374 1 0.187829 0.440922 0.622127
356 1 0.00276013 0.313289 0.687039
378 1 0.309696 0.43678 0.620128
451 1 0.0621682 0.00306459 0.937692
897 1 0.0038557 0.499285 0.752599
328 1 0.128769 0.0637208 0.687477
278 1 0.192 0.184729 0.500717
294 1 0.190948 0.312954 0.500384
339 1 0.0657065 0.125877 0.685406
332 1 0.248449 0.058098 0.691544
492 1 0.250209 0.30897 0.941682
1524 1 0.495225 0.433086 0.933124
343 1 0.189869 0.1256 0.68605
344 1 0.125573 0.187725 0.682027
410 1 0.312359 0.189954 0.747704
351 1 0.435827 0.123721 0.689858
355 1 0.0628073 0.24787 0.687415
367 1 0.436451 0.248169 0.693128
418 1 0.0635613 0.308677 0.753208
421 1 0.126345 0.250038 0.749857
422 1 0.187821 0.310592 0.750223
425 1 0.25256 0.249299 0.749306
430 1 0.438601 0.311235 0.74441
429 1 0.370815 0.25007 0.751161
433 1 0.00165656 0.37236 0.754795
387 1 0.0626597 0.000589724 0.810483
437 1 0.123724 0.37609 0.748671
441 1 0.247166 0.37302 0.751053
379 1 0.306866 0.379989 0.686007
426 1 0.309694 0.313474 0.74832
383 1 0.43331 0.376409 0.687607
434 1 0.0603865 0.43247 0.749337
438 1 0.184299 0.438708 0.745997
380 1 0.248652 0.438809 0.683897
442 1 0.30747 0.439823 0.749075
337 1 0.00108186 0.124718 0.623495
446 1 0.437053 0.439158 0.751898
30 1 0.436823 0.189579 0.996556
386 1 0.066627 0.0626901 0.753347
392 1 0.124753 0.0620537 0.813991
390 1 0.186613 0.0646394 0.751221
1476 1 0.498706 0.0646713 0.940036
394 1 0.313385 0.0617775 0.750491
1316 1 0.497673 0.314371 0.564341
403 1 0.0612529 0.131262 0.811553
405 1 0.126304 0.122774 0.752947
396 1 0.25086 0.0637484 0.81226
413 1 0.371555 0.123855 0.747841
398 1 0.437788 0.0625073 0.749912
402 1 0.063213 0.187679 0.746239
409 1 0.25073 0.125918 0.749579
414 1 0.432884 0.183651 0.748457
506 1 0.315681 0.43722 0.874936
419 1 0.0655872 0.24521 0.813091
408 1 0.125688 0.188281 0.809786
406 1 0.185845 0.189567 0.745852
412 1 0.246446 0.187384 0.812852
495 1 0.439291 0.247968 0.932377
1521 1 0.496939 0.374097 0.871977
423 1 0.187756 0.253299 0.813587
424 1 0.120752 0.31388 0.812602
428 1 0.247121 0.316248 0.817177
427 1 0.310159 0.250807 0.812161
439 1 0.188472 0.372853 0.812143
445 1 0.367683 0.376875 0.749464
480 1 0.375693 0.191864 0.936324
325 1 0.123014 -0.0010256 0.627117
488 1 0.121343 0.319699 0.937673
293 1 0.124744 0.254317 0.501237
440 1 0.124924 0.435311 0.814601
444 1 0.246256 0.438522 0.811579
448 1 0.373093 0.439458 0.808678
450 1 0.0583242 0.0647456 0.871448
491 1 0.311578 0.251856 0.935491
454 1 0.189763 0.0609313 0.876032
263 1 0.183797 0.0017661 0.564067
458 1 0.310512 0.0635366 0.875897
400 1 0.373331 0.0665874 0.81328
259 1 0.0620846 0.00321089 0.56634
462 1 0.43532 0.0598022 0.873122
411 1 0.310656 0.124375 0.81197
511 1 0.434197 0.372173 0.936821
455 1 0.190086 -0.000217613 0.939622
469 1 0.124512 0.121548 0.874303
407 1 0.187621 0.126167 0.8108
416 1 0.373107 0.186585 0.812615
415 1 0.437333 0.125004 0.807969
483 1 0.0626609 0.250447 0.934877
470 1 0.186126 0.188207 0.877064
489 1 0.246815 0.250388 0.878428
474 1 0.311082 0.189315 0.871293
431 1 0.434398 0.247554 0.808024
482 1 0.0604193 0.310083 0.875193
485 1 0.127508 0.247009 0.874489
486 1 0.184386 0.313141 0.879262
432 1 0.376432 0.3136 0.808143
467 1 0.0624435 0.11538 0.937747
501 1 0.126123 0.376655 0.876387
435 1 0.0651955 0.372485 0.814765
490 1 0.316475 0.311744 0.871466
505 1 0.245345 0.381732 0.873858
447 1 0.433529 0.374755 0.812593
498 1 0.0591125 0.437799 0.877031
502 1 0.184695 0.44314 0.878363
443 1 0.309665 0.373158 0.809916
510 1 0.433531 0.435429 0.870238
267 1 0.313888 0.00123231 0.563719
1412 1 0.500817 0.0590029 0.806515
460 1 0.250659 0.0627454 0.939354
512 1 0.375792 0.435857 0.940688
1489 1 0.497447 0.119376 0.868917
509 1 0.37638 0.372605 0.876166
456 1 0.128307 0.0593172 0.9359
473 1 0.25139 0.126688 0.876005
475 1 0.312533 0.129272 0.935195
477 1 0.376441 0.126553 0.876078
479 1 0.436778 0.127003 0.934558
464 1 0.375968 0.0622271 0.939021
25 1 0.25021 0.122967 0.995643
471 1 0.189083 0.126418 0.933886
466 1 0.0575663 0.187419 0.87497
472 1 0.122362 0.185764 0.933805
476 1 0.248643 0.192111 0.937726
478 1 0.438326 0.187412 0.871493
487 1 0.184495 0.254216 0.938827
493 1 0.37236 0.247546 0.875014
494 1 0.437857 0.308163 0.868079
499 1 0.055414 0.375068 0.938968
507 1 0.309988 0.372774 0.933687
496 1 0.372911 0.312344 0.937201
1425 1 0.49914 0.122141 0.748115
401 1 0.00272581 0.128129 0.748041
971 1 0.309165 0.501264 0.936988
899 1 0.0630074 0.496265 0.81368
274 1 0.0656103 0.185788 0.501132
975 1 0.437179 0.499375 0.935237
1441 1 0.498858 0.247107 0.749109
847 1 0.43587 0.497479 0.685815
395 1 0.314281 0.00145777 0.813085
324 1 0.00573714 0.0648522 0.691351
45 1 0.37197 0.251016 0.9989
1393 1 0.493911 0.376521 0.623987
457 1 0.253062 0.0045357 0.874764
323 1 0.0618737 0.00157432 0.687507
389 1 0.127865 0.00148479 0.752546
907 1 0.309277 0.498365 0.813939
453 1 0.120781 0.000236351 0.87718
839 1 0.187779 0.499289 0.68253
271 1 0.442045 0.0028527 0.56156
310 1 0.189821 0.437643 0.502374
269 1 0.379962 0.00172714 0.502369
38 1 0.188587 0.31212 0.99987
22 1 0.18167 0.190132 0.998387
34 1 0.0586737 0.305588 0.997804
26 1 0.308337 0.189133 0.997966
309 1 0.12688 0.373551 0.504622
297 1 0.249961 0.251488 0.504697
1057 1 0.497479 0.252459 0.995688
37 1 0.118729 0.24736 0.997191
318 1 0.438016 0.437566 0.500886
29 1 0.376818 0.127307 0.996728
21 1 0.12511 0.124564 0.998091
302 1 0.430714 0.314493 0.505015
313 1 0.247927 0.377382 0.504327
1537 1 0.499495 0.496284 0.99603
57 1 0.248124 0.374215 0.99993
281 1 0.256738 0.126061 0.501353
306 1 0.0636704 0.43681 0.502169
520 1 0.127688 0.562087 0.0629557
524 1 0.250061 0.560662 0.0618351
527 1 0.432625 0.499047 0.0659394
528 1 0.374221 0.563083 0.0598252
13 1 0.378724 1.0013 -0.000488927
793 1 0.251712 0.622357 0.496686
1716 1 0.499324 0.938308 0.316245
1540 1 0.499905 0.559705 0.0606852
535 1 0.188485 0.62766 0.0577241
523 1 0.308469 0.501226 0.0621513
539 1 0.310432 0.626476 0.0640584
543 1 0.436194 0.623751 0.0583824
569 1 0.250731 0.877271 0.000220862
573 1 0.37979 0.873674 0.0011039
540 1 0.248627 0.68809 0.0586996
770 1 0.0587272 0.568224 0.498569
673 1 0.00168966 0.749322 0.248962
591 1 0.435666 0.499077 0.189451
1601 1 0.500676 0.501735 0.124393
556 1 0.252353 0.815059 0.0672487
77 1 0.377251 0.997398 0.12396
737 1 0.0024605 0.756988 0.374624
552 1 0.126719 0.815458 0.0644975
567 1 0.188337 0.876606 0.063567
560 1 0.379176 0.809333 0.0630812
768 1 0.378854 0.94569 0.441415
558 1 0.438518 0.807152 0.000713139
576 1 0.376732 0.93666 0.0616993
548 1 0.00542795 0.816017 0.0650487
802 1 0.0631698 0.812689 0.498634
593 1 0.00430839 0.622249 0.1254
1780 1 0.500931 0.937289 0.440367
818 1 0.0558582 0.931792 0.499139
1569 1 0.500201 0.748286 0.00240748
1745 1 0.498429 0.624819 0.375263
531 1 0.0631132 0.627198 0.0624779
597 1 0.125238 0.623572 0.122568
601 1 0.247445 0.623384 0.122027
586 1 0.310275 0.56429 0.127618
590 1 0.431912 0.56174 0.126716
1761 1 0.498755 0.74465 0.375097
760 1 0.122983 0.941141 0.437533
536 1 0.128052 0.691208 0.0615376
589 1 0.371009 0.501818 0.130094
547 1 0.0672633 0.751323 0.0612918
555 1 0.312374 0.749421 0.060213
544 1 0.374436 0.69103 0.0622701
551 1 0.191236 0.750552 0.0595531
559 1 0.437427 0.747092 0.0615294
767 1 0.43489 0.87448 0.437192
563 1 0.0640862 0.882117 0.0576386
629 1 0.125284 0.880242 0.124506
571 1 0.313474 0.877965 0.0637955
575 1 0.441813 0.876198 0.0677209
557 1 0.375364 0.746734 3.54213e-05
1636 1 0.498507 0.812495 0.185219
568 1 0.12715 0.943374 0.0610714
572 1 0.248145 0.938403 0.0628396
578 1 0.063042 0.562418 0.123927
582 1 0.186156 0.562812 0.126985
588 1 0.247354 0.564633 0.187434
790 1 0.188797 0.689471 0.497404
599 1 0.187869 0.627294 0.187386
592 1 0.372271 0.566467 0.187276
594 1 0.0660261 0.688196 0.124388
595 1 0.0652779 0.627076 0.18717
605 1 0.378358 0.626589 0.120083
606 1 0.43869 0.684493 0.1241
607 1 0.43442 0.628338 0.191365
600 1 0.12698 0.689636 0.184891
598 1 0.190599 0.688128 0.121118
604 1 0.250254 0.694067 0.189849
602 1 0.310703 0.686502 0.124553
610 1 0.064095 0.812417 0.125556
613 1 0.127539 0.754629 0.124032
617 1 0.248024 0.755419 0.129239
621 1 0.373197 0.750627 0.126006
618 1 0.312516 0.811015 0.129818
596 1 0.00517576 0.686828 0.186182
797 1 0.375464 0.624831 0.499453
614 1 0.188961 0.816731 0.124997
637 1 0.377805 0.874696 0.125797
622 1 0.43845 0.811427 0.123821
627 1 0.0611686 0.879607 0.184609
633 1 0.252056 0.875915 0.12531
626 1 0.0629048 0.94023 0.123993
137 1 0.250697 0.995502 0.254065
630 1 0.190224 0.943233 0.123749
634 1 0.313896 0.938046 0.12692
612 1 -0.000987717 0.810001 0.186419
638 1 0.437042 0.936004 0.126717
566 1 0.189542 0.937238 0.0026963
584 1 0.128018 0.563531 0.189751
565 1 0.124635 0.87593 0.00109163
201 1 0.252289 0.999916 0.37953
583 1 0.190058 0.501074 0.187503
644 1 -0.000631897 0.564343 0.30917
692 1 0.00655899 0.937389 0.309822
763 1 0.313018 0.875902 0.437978
646 1 0.187606 0.558934 0.253636
650 1 0.313094 0.56266 0.249775
669 1 0.371371 0.62504 0.248488
1604 1 0.494281 0.563088 0.192911
585 1 0.248702 0.504929 0.127954
662 1 0.188865 0.688412 0.248552
603 1 0.306345 0.625391 0.186424
814 1 0.433629 0.812498 0.499794
615 1 0.186946 0.753164 0.187325
608 1 0.377906 0.688971 0.185599
764 1 0.249117 0.939962 0.438691
611 1 0.0642295 0.751119 0.185198
620 1 0.247064 0.811457 0.190667
619 1 0.313256 0.750234 0.185015
623 1 0.437134 0.748346 0.185466
616 1 0.125766 0.813799 0.184851
624 1 0.377373 0.814594 0.184887
639 1 0.443727 0.875946 0.185456
794 1 0.312864 0.686422 0.496977
631 1 0.188963 0.879001 0.182544
635 1 0.311419 0.880206 0.186581
640 1 0.372331 0.94188 0.186356
702 1 0.439946 0.940661 0.250353
632 1 0.125134 0.947314 0.185309
694 1 0.18664 0.935627 0.248495
636 1 0.250782 0.939617 0.187257
1748 1 0.499911 0.688043 0.43842
654 1 0.429719 0.56744 0.25082
642 1 0.0628747 0.563696 0.247307
663 1 0.188256 0.623249 0.30898
665 1 0.253147 0.621989 0.250643
661 1 0.125636 0.623978 0.250065
670 1 0.436791 0.690617 0.250453
712 1 0.124286 0.563745 0.436768
658 1 0.0638667 0.689551 0.247792
677 1 0.123212 0.754467 0.247784
681 1 0.25241 0.753109 0.250737
666 1 0.313489 0.690875 0.248188
759 1 0.188339 0.879289 0.436025
678 1 0.188156 0.814128 0.250573
682 1 0.315423 0.819172 0.248377
685 1 0.374033 0.752524 0.251942
686 1 0.43513 0.811095 0.249884
674 1 0.0621543 0.81699 0.247455
743 1 0.188121 0.752038 0.432537
691 1 0.0602935 0.872974 0.309089
693 1 0.126867 0.875946 0.244377
697 1 0.248941 0.874324 0.248283
698 1 0.314075 0.932328 0.251553
701 1 0.379083 0.876431 0.244706
727 1 0.183785 0.624815 0.437349
690 1 0.0681128 0.936139 0.248801
1793 1 0.498722 0.500784 0.497761
706 1 0.059497 0.56475 0.375514
648 1 0.122398 0.565899 0.315152
728 1 0.125388 0.690815 0.435337
652 1 0.24848 0.557686 0.315351
709 1 0.120665 0.50196 0.374364
723 1 0.0648312 0.627832 0.437626
732 1 0.249145 0.680893 0.433416
710 1 0.185936 0.562029 0.376995
656 1 0.375646 0.560002 0.315316
671 1 0.436227 0.623971 0.314102
735 1 0.43594 0.628168 0.440277
659 1 0.0621108 0.626228 0.312126
664 1 0.127734 0.692368 0.310821
667 1 0.314042 0.624252 0.315375
672 1 0.371721 0.689002 0.312065
744 1 0.129186 0.815855 0.433965
731 1 0.313988 0.622668 0.435031
722 1 0.0647577 0.692598 0.376913
668 1 0.251765 0.686822 0.312173
679 1 0.189916 0.750994 0.308816
683 1 0.313893 0.755169 0.314305
687 1 0.438034 0.75571 0.314794
675 1 0.0672918 0.754121 0.303376
684 1 0.251655 0.812542 0.311803
738 1 0.0613166 0.812883 0.372371
680 1 0.126479 0.819902 0.308575
699 1 0.318858 0.874614 0.314215
688 1 0.376433 0.814267 0.313602
695 1 0.190925 0.876027 0.310878
700 1 0.251141 0.937891 0.314863
703 1 0.439518 0.873645 0.310321
752 1 0.376995 0.809489 0.432445
577 1 0.00185299 0.500245 0.125252
754 1 0.0648517 0.940466 0.374527
696 1 0.130252 0.934615 0.311808
704 1 0.381221 0.938153 0.308983
748 1 0.249784 0.817232 0.437687
720 1 0.373429 0.561041 0.4379
736 1 0.376146 0.690292 0.436806
1777 1 0.498116 0.877726 0.378195
739 1 0.0672356 0.754525 0.436712
718 1 0.436603 0.563811 0.375525
725 1 0.125131 0.628052 0.373138
714 1 0.312831 0.559489 0.374437
729 1 0.252201 0.62015 0.372305
730 1 0.31414 0.685546 0.377946
733 1 0.376695 0.625191 0.377005
726 1 0.187388 0.686879 0.374434
749 1 0.37663 0.753332 0.371635
734 1 0.434385 0.687942 0.371097
741 1 0.127131 0.755653 0.372172
742 1 0.18817 0.815646 0.372192
745 1 0.247211 0.750906 0.375967
746 1 0.312142 0.818037 0.372719
750 1 0.442949 0.810976 0.378582
755 1 0.0680591 0.873914 0.436684
757 1 0.120532 0.875533 0.370127
761 1 0.250837 0.878818 0.37577
765 1 0.381275 0.877596 0.371734
751 1 0.437874 0.750102 0.43924
716 1 0.251476 0.556694 0.4336
758 1 0.185756 0.937597 0.374133
747 1 0.308603 0.752884 0.438494
762 1 0.317011 0.937781 0.374705
766 1 0.437996 0.942903 0.378072
1684 1 0.496907 0.686351 0.310185
657 1 -0.000498584 0.628422 0.249564
580 1 6.4386e-05 0.564811 0.18607
756 1 -0.000233954 0.934437 0.438097
11 1 0.315074 0.997879 0.0625685
625 1 0.00344182 0.877043 0.122721
778 1 0.316166 0.560684 0.496763
660 1 0.00421863 0.695095 0.313754
1764 1 0.497566 0.812215 0.443403
782 1 0.435248 0.563599 0.498474
75 1 0.312958 0.999103 0.188133
774 1 0.185586 0.55966 0.496372
653 1 0.376855 0.501001 0.248574
643 1 0.0609712 0.502862 0.31093
139 1 0.318351 0.99934 0.30914
705 1 -0.000892102 0.504817 0.372307
554 1 0.312381 0.815252 0.00251942
609 1 0.00620166 0.750127 0.12316
73 1 0.250551 1.00033 0.123285
707 1 0.0607375 0.503945 0.438426
579 1 0.0611344 0.501103 0.187784
581 1 0.127032 0.499605 0.127429
641 1 0.00132308 0.501571 0.249808
1729 1 0.499937 0.503163 0.373078
717 1 0.375998 0.502216 0.371963
822 1 0.186712 0.940433 0.498227
809 1 0.248952 0.749799 0.49312
829 1 0.37814 0.878632 0.497401
525 1 0.371709 0.50089 0.000797196
514 1 0.0639735 0.56426 0.001959
806 1 0.184178 0.813606 0.498846
1 1 0.000729936 0.999897 0.000619966
773 1 0.118219 0.506248 0.499723
570 1 0.311728 0.940887 0.00265284
777 1 0.251011 0.500976 0.496594
789 1 0.122994 0.627505 0.498912
526 1 0.436446 0.559168 0.000833838
805 1 0.125642 0.751967 0.498891
574 1 0.443911 0.935523 0.00488242
549 1 0.125886 0.754788 0.00218973
826 1 0.312392 0.937038 0.497997
562 1 0.0614501 0.941941 0.00329261
333 1 0.376354 0.99522 0.623535
1937 1 0.498252 0.622127 0.747145
884 1 -0.000198287 0.937633 0.691264
541 1 0.377214 0.625869 0.99751
776 1 0.12176 0.562063 0.563929
791 1 0.185753 0.623589 0.558426
799 1 0.435974 0.620386 0.566893
945 1 0.00282907 0.871196 0.7525
803 1 0.0611468 0.75026 0.561399
901 1 0.122478 0.501535 0.748234
792 1 0.124648 0.689646 0.560836
533 1 0.128582 0.621781 1.00055
807 1 0.187766 0.749325 0.558888
835 1 0.0619721 0.503116 0.684585
329 1 0.254564 0.998616 0.623818
1016 1 0.126976 0.936268 0.940798
808 1 0.123122 0.808572 0.567434
973 1 0.374431 0.501161 0.872591
811 1 0.311115 0.749121 0.559732
816 1 0.368745 0.812447 0.56306
327 1 0.186984 0.997908 0.68684
545 1 0.00162052 0.746725 0.999709
993 1 0.00205255 0.74944 0.879106
900 1 0.00276316 0.560096 0.81355
843 1 0.311341 0.504379 0.688323
841 1 0.252056 0.501733 0.621598
831 1 0.43976 0.873042 0.561051
824 1 0.11832 0.939002 0.561796
1908 1 0.497011 0.939255 0.685771
913 1 0.00464879 0.628158 0.753421
834 1 0.0591043 0.565143 0.626952
909 1 0.377084 0.502184 0.74739
810 1 0.312367 0.817541 0.498605
780 1 0.246551 0.561373 0.558885
784 1 0.373587 0.561054 0.563329
846 1 0.432976 0.560251 0.625231
853 1 0.12464 0.626129 0.62527
857 1 0.249477 0.623562 0.625459
795 1 0.311374 0.619035 0.558419
787 1 0.0593832 0.625918 0.562932
800 1 0.370348 0.684879 0.563907
862 1 0.433413 0.689453 0.617929
916 1 0.000349325 0.687982 0.817907
850 1 0.0634846 0.68747 0.622126
869 1 0.126717 0.749448 0.625845
796 1 0.251934 0.682388 0.556244
873 1 0.252348 0.753563 0.620472
815 1 0.431871 0.755977 0.563525
870 1 0.189838 0.810204 0.621979
813 1 0.374377 0.747107 0.500114
866 1 0.0620394 0.807312 0.624767
889 1 0.247955 0.878026 0.626676
812 1 0.245133 0.816007 0.559301
827 1 0.313557 0.87284 0.563858
874 1 0.310569 0.814777 0.627307
969 1 0.250269 0.501679 0.870706
331 1 0.312194 0.994181 0.684644
819 1 0.057591 0.87304 0.562955
885 1 0.121833 0.871944 0.623894
823 1 0.186558 0.879087 0.56324
832 1 0.3701 0.936002 0.561296
894 1 0.436214 0.937143 0.624011
932 1 0.00327438 0.813368 0.814658
886 1 0.182662 0.938715 0.62001
828 1 0.247843 0.93921 0.563477
393 1 0.251926 0.997871 0.752976
534 1 0.187946 0.692691 0.997606
775 1 0.187058 0.501487 0.560637
798 1 0.437851 0.687171 0.503065
851 1 0.0653084 0.630666 0.687171
838 1 0.185767 0.565417 0.619072
844 1 0.252283 0.563781 0.685498
842 1 0.31122 0.563292 0.620949
861 1 0.371138 0.622253 0.621821
863 1 0.436373 0.626977 0.677133
864 1 0.376277 0.688802 0.684971
996 1 0.00341037 0.817273 0.937977
867 1 0.0635647 0.745753 0.688265
856 1 0.128408 0.686454 0.685225
854 1 0.192565 0.688167 0.622978
858 1 0.307016 0.688274 0.619825
879 1 0.438329 0.751008 0.686474
783 1 0.437206 0.501781 0.564388
877 1 0.369098 0.747151 0.62129
880 1 0.372916 0.807708 0.682117
878 1 0.441133 0.815424 0.627993
1019 1 0.31175 0.877718 0.940117
887 1 0.18431 0.872046 0.686855
893 1 0.377454 0.873372 0.625863
895 1 0.441125 0.871092 0.689669
890 1 0.312153 0.936387 0.622968
896 1 0.377837 0.935933 0.687578
882 1 0.0590202 0.93611 0.625572
965 1 0.126359 0.504447 0.87619
788 1 -0.00174457 0.687079 0.562808
898 1 0.0611306 0.56634 0.749753
902 1 0.188711 0.562237 0.748765
1009 1 0.00436002 0.879166 0.877417
2036 1 0.498877 0.934531 0.946387
1796 1 0.499592 0.563256 0.562485
848 1 0.371967 0.568282 0.68376
977 1 0.00236189 0.620398 0.878179
840 1 0.124859 0.564421 0.686849
855 1 0.186728 0.623416 0.684813
1988 1 0.495235 0.558815 0.937738
917 1 0.127108 0.628422 0.754853
859 1 0.312197 0.628415 0.685193
926 1 0.442261 0.686805 0.750748
918 1 0.189907 0.691757 0.75145
860 1 0.250814 0.689658 0.686615
875 1 0.310485 0.748829 0.689174
769 1 0.00324167 0.506096 0.500412
933 1 0.127491 0.74854 0.750881
871 1 0.191442 0.752117 0.68396
876 1 0.250976 0.8165 0.688165
938 1 0.313033 0.812328 0.749783
942 1 0.435791 0.809236 0.74927
883 1 0.057738 0.872745 0.685807
930 1 0.0643615 0.807659 0.749015
872 1 0.125459 0.809109 0.682686
934 1 0.187986 0.812562 0.746554
891 1 0.313628 0.876815 0.685906
961 1 0.00339472 0.502045 0.87922
888 1 0.122449 0.936535 0.68758
953 1 0.25018 0.877242 0.752406
954 1 0.316215 0.937749 0.747622
892 1 0.249778 0.936215 0.68861