ITEM: TIMESTEP
100000
ITEM: NUMBER OF ATOMS
2048
ITEM: BOX BOUNDS pp pp pp
0.0000000000000000e+00 1.3153131063095840e+01
0.0000000000000000e+00 1.3153131063095840e+01
0.0000000000000000e+00 1.3153131063095840e+01
ITEM: ATOMS id type xs ys zs
1878 1 0.143257 0.141844 0.0198703
193 1 0.495366 0.0816369 0.117281
2025 1 0.302467 0.467483 0.108156
178 1 0.407758 0.0270219 0.331862
29 1 0.326875 0.369718 0.425037
1916 1 0.401432 0.460237 0.300715
892 1 0.371362 0.0345044 0.406679
1972 1 0.107039 0.445627 0.416793
1558 1 0.154766 0.485514 0.373344
1031 1 0.283061 0.18261 0.20927
1573 1 0.207843 0.185218 0.0498179
814 1 0.359137 0.493915 0.361314
293 1 0.278258 0.446645 0.0420207
1134 1 0.0741452 0.222519 0.298927
1994 1 0.0343667 0.248639 0.466666
1090 1 0.138616 0.447268 0.246501
158 1 0.445685 0.255351 0.349118
1971 1 0.1875 0.0327507 0.241742
463 1 0.0636925 0.433937 0.269358
322 1 0.146226 0.230503 0.077016
398 1 0.374955 0.115302 0.0496074
196 1 0.40822 0.378629 0.325539
429 1 0.359271 0.00235225 0.150662
348 1 0.29762 0.253226 0.0259229
920 1 0.100847 0.382165 0.370245
1689 1 0.417203 0.00898179 0.0269852
1613 1 0.0267321 0.195999 0.071573
1970 1 0.134671 0.0298881 0.180577
1561 1 0.148377 0.0726723 0.492686
1655 1 0.471113 0.149467 0.147785
1463 1 0.102223 0.205008 0.206858
185 1 0.178433 0.177297 0.148992
1668 1 0.194098 0.0361748 0.398171
1756 1 0.124115 0.500325 0.0495257
818 1 0.1208 0.0553676 0.363409
1682 1 0.348429 0.403365 0.357714
68 1 0.317143 0.324054 0.0634106
458 1 0.0334183 0.0609847 0.189582
943 1 0.05832 0.0176147 0.326321
1960 1 0.307414 0.123451 0.09832
1956 1 0.477918 0.225384 0.170872
1246 1 0.231094 0.454232 0.208907
448 1 -0.000545077 0.0211287 0.0530687
166 1 0.293822 0.0876264 0.0066828
90 1 0.365106 0.324854 0.00848596
681 1 0.468476 0.0276189 0.391361
11 1 0.365988 0.158065 0.404157
1800 1 0.177054 0.405728 0.175036
1913 1 0.2249 0.441475 0.281856
1497 1 0.189907 0.367432 0.370151
1073 1 0.0755444 0.320101 0.0162715
912 1 0.490351 0.294133 0.303695
1035 1 0.0688966 0.0552418 0.0313252
365 1 0.36062 0.145112 0.25467
8 1 0.115924 0.0917252 0.137966
859 1 0.154541 0.0191407 0.302612
1516 1 0.105789 0.243113 0.135784
654 1 0.457314 0.455377 0.449418
1128 1 0.0812056 0.231055 0.0362569
1769 1 0.260594 0.307364 0.110764
1859 1 0.427815 0.379791 0.0615297
1794 1 0.15029 0.201766 0.265004
895 1 0.175606 0.381571 0.10233
1143 1 0.233653 0.369479 0.0499296
682 1 0.0203946 0.367696 0.091729
1513 1 0.191273 0.384292 0.452312
167 1 0.0412612 0.414149 0.337785
280 1 0.440772 0.277758 0.228793
1657 1 0.122051 0.318959 0.0924635
216 1 0.139574 0.104043 0.423252
739 1 0.441202 0.143611 0.215667
1089 1 0.368487 0.488019 0.166312
1177 1 0.337976 0.493061 0.0387263
488 1 0.0352823 0.494337 0.328747
1209 1 0.037799 0.472694 0.211651
903 1 0.147557 0.338406 0.204253
626 1 0.0177437 0.291154 0.402812
2015 1 0.215775 0.262882 0.0558286
1103 1 0.371076 0.22386 0.0822622
2004 1 0.391058 0.210921 0.198366
1185 1 0.445786 0.374873 0.132338
57 1 0.391157 0.34903 0.177696
1983 1 0.407911 0.183899 0.0322382
15 1 0.109931 0.296749 0.410396
294 1 0.439403 0.168261 0.334443
27 1 0.40065 0.262104 0.136895
2020 1 0.155516 0.0165771 0.11102
1989 1 0.0291936 0.127638 0.148317
330 1 0.44867 0.20968 0.0929092
1078 1 0.434311 0.39482 0.390502
237 1 0.343449 0.391139 0.00645388
875 1 0.160077 0.0527918 0.0298759
1167 1 0.466076 0.370503 0.27963
1886 1 0.349087 0.153975 0.178735
686 1 0.181083 0.142197 0.483361
1249 1 0.439423 0.110794 0.0783697
1493 1 0.385572 0.0495222 0.0947412
1291 1 0.328586 0.456871 0.298617
1737 1 0.33939 0.0901065 0.377715
916 1 0.310269 0.0452158 0.105924
247 1 0.420749 0.118595 0.283557
1939 1 0.295355 0.131472 0.417815
1762 1 0.194992 0.0957504 0.324092
1191 1 0.0305359 0.446546 0.405091
1548 1 0.245386 0.0308367 0.343957
544 1 0.447651 0.208582 0.268733
2010 1 0.274584 0.111349 0.312515
460 1 0.0269538 0.288628 0.284933
1077 1 0.00894898 0.153388 0.455046
710 1 0.227587 0.186973 0.435393
1473 1 0.421206 0.468407 0.0566516
305 1 0.342968 0.308763 0.137233
1538 1 0.480383 0.0845868 0.191742
1437 1 0.309676 0.155616 0.0325733
194 1 0.247756 0.147663 0.149264
1616 1 0.481115 0.306207 0.138702
54 1 0.284677 0.387884 0.0950759
53 1 0.294257 0.203489 0.392231
1644 1 0.457346 0.187524 0.424215
1667 1 0.217663 0.447968 0.130888
1487 1 0.490657 0.416117 0.0159371
1724 1 0.187044 0.0796549 0.153842
2041 1 0.0912164 0.304605 0.166749
1316 1 0.118708 0.182787 0.478372
86 1 0.338581 0.0535007 0.215085
1764 1 0.0587648 0.36589 0.429158
1646 1 0.390514 0.322925 0.263773
160 1 0.245101 0.360286 0.314145
821 1 0.47939 0.0590231 0.32785
963 1 0.440204 0.495338 0.201664
162 1 0.403993 0.0968607 0.157789
1556 1 0.0876587 0.170424 0.111513
580 1 0.440218 0.034774 0.156087
101 1 0.407067 0.39617 0.470153
1559 1 0.31601 0.213653 0.14333
1531 1 0.100085 0.110926 0.0685081
1223 1 0.249167 0.246414 0.338213
1276 1 0.35781 0.433249 0.0683391
1358 1 0.374753 0.20801 0.326601
1307 1 0.214931 0.11233 0.397514
887 1 0.479433 0.313762 0.0591183
637 1 0.347686 0.251543 0.263025
1881 1 0.168025 0.247256 0.196455
374 1 0.332227 0.196955 0.457098
1111 1 0.406683 0.304175 0.075554
1059 1 0.48266 0.435705 0.0924002
468 1 0.0232991 0.229624 0.137376
1784 1 0.251586 0.366919 0.173896
251 1 0.379511 0.283173 0.324629
1434 1 0.34107 0.0184864 0.0105519
1380 1 0.181053 0.246691 0.320082
854 1 0.30132 0.338545 0.35719
1474 1 0.27346 0.42254 0.419718
1892 1 0.131589 0.274009 0.252868
724 1 0.373507 0.230303 0.40722
1715 1 0.462292 0.42162 0.227131
665 1 0.0807436 0.155783 0.413143
1155 1 0.241649 0.245331 0.176844
1471 1 0.220757 0.168446 0.277108
373 1 0.117959 0.38042 0.286699
7 1 0.0867483 0.109873 0.478453
1288 1 0.0148179 0.12709 0.222525
1477 1 0.166157 0.423131 0.329155
2000 1 0.0559337 0.447883 0.0593166
1174 1 0.145285 0.244177 0.451826
353 1 0.144894 0.155919 0.330289
1828 1 0.290867 0.196773 0.287956
1626 1 0.464501 0.334663 0.36048
1643 1 0.186206 0.125369 0.087871
756 1 0.159945 0.174226 0.414379
2024 1 0.181648 0.110692 0.233668
128 1 0.0515285 0.491149 0.129413
1920 1 0.0363147 0.0530908 0.109818
950 1 0.18859 0.300289 0.137406
522 1 0.0759643 0.00569155 0.148012
382 1 0.107155 0.298219 0.319738
727 1 0.277858 0.0229729 0.17589
872 1 0.00366104 0.092392 0.3527
555 1 0.0455016 0.33659 0.344095
1207 1 0.391898 0.158033 0.117086
339 1 0.0354899 0.166879 0.335563
1586 1 0.085383 0.109899 0.201336
44 1 0.160531 0.481518 0.174892
650 1 0.219994 0.0791015 0.467743
531 1 0.226337 0.0369207 0.00335127
1876 1 0.317578 0.272082 0.380942
899 1 0.358097 0.45459 0.430748
1698 1 0.476129 0.315263 0.432874
51 1 0.0379091 0.0783579 0.290015
1069 1 0.374123 0.0890337 0.453211
595 1 0.181895 0.462475 0.454645
541 1 0.00365449 0.242109 0.337686
842 1 0.244717 0.443762 0.351436
1415 1 0.0843282 0.115114 0.348628
636 1 0.0905196 0.419973 0.183928
1065 1 0.191318 0.376537 0.254485
1650 1 0.244124 0.212627 0.110646
1534 1 0.442441 0.12625 0.471175
1753 1 0.125659 0.228651 0.369455
1093 1 0.118701 0.0767005 0.259398
16 1 0.324411 0.322437 0.215628
1100 1 0.435657 0.465575 0.361871
1391 1 0.200471 0.29557 0.465237
521 1 0.298082 0.484004 0.19515
411 1 0.229553 0.176694 0.347851
61 1 0.3338 0.361578 0.289408
2016 1 0.173922 0.324024 0.308522
494 1 0.305265 0.282955 0.309384
1441 1 0.302407 0.0568202 0.444139
1082 1 0.316136 0.411512 0.159998
474 1 0.135984 0.443761 0.114414
532 1 0.052454 0.287679 0.0802386
1061 1 0.272684 0.152173 0.483929
39 1 0.0545624 0.320226 0.226847
1609 1 0.394368 0.327369 0.384437
1691 1 0.426491 0.263853 0.447091
995 1 0.0230709 0.121919 0.0627507
1540 1 0.268019 0.00256925 0.0522148
111 1 0.413231 0.42915 0.168877
1985 1 0.441587 0.199816 0.497234
20 1 0.276729 0.272916 0.440289
1395 1 0.231942 0.0609194 0.0940776
1053 1 0.121685 0.0249587 0.441931
847 1 0.185041 0.295204 0.381617
221 1 0.496699 0.385366 0.438364
578 1 0.134106 0.329812 0.471615
612 1 0.197258 0.437418 0.0460297
1708 1 0.354045 0.0858853 0.304585
75 1 0.438758 0.0486325 0.453229
550 1 0.0805074 0.142571 0.280237
1765 1 0.472909 0.350577 0.203175
1638 1 0.0712122 0.0698922 0.420328
1253 1 0.428636 0.268257 0.0123597
450 1 0.24063 0.283685 0.250174
1139 1 0.263987 0.109547 0.219296
354 1 0.379071 0.407617 0.251118
1855 1 0.279741 0.0427228 0.281748
1637 1 0.304885 0.411142 0.242447
536 1 0.102104 0.464951 0.332634
905 1 0.406341 0.0972813 0.352607
286 1 0.250919 0.340436 0.413541
1921 1 0.361312 0.260593 0.483596
2014 1 0.0863722 0.388433 0.113874
65 1 0.424729 0.0485593 0.237567
520 1 0.0974369 0.389839 0.0253251
1224 1 0.210501 0.106715 0.0187574
2028 1 0.321599 0.414203 0.487026
1044 1 0.15517 0.286829 0.000403564
130 1 0.0332089 0.370466 0.167167
1517 1 0.0687152 0.0079208 0.49164
74 1 0.4926 0.157327 0.04583
1687 1 0.491614 0.407763 0.338145
1168 1 0.284264 0.335177 0.481179
211 1 0.00915532 0.194266 0.261284
1790 1 0.0199256 0.40773 0.495358
906 1 0.0144748 0.383805 0.2329
49 1 0.053945 0.496314 0.460163
1049 1 0.179522 0.494009 0.303581
163 1 0.0927259 0.397806 0.493133
1256 1 0.117185 0.230431 0.538832
657 1 0.226297 0.0148879 0.777311
1936 1 0.0512723 0.0477877 0.961896
1318 1 0.0768422 0.474081 0.994681
1042 1 0.179845 0.0562677 0.938513
911 1 0.107429 0.00306212 0.558624
1351 1 0.203461 0.29067 0.544568
1550 1 0.135024 0.196896 0.900881
209 1 0.416692 0.272719 0.524755
438 1 0.104947 0.184029 0.681268
1428 1 0.198766 0.187033 0.691468
955 1 0.0900287 0.144783 0.918267
464 1 0.182489 0.406486 0.89472
969 1 0.387235 0.11786 0.975266
1308 1 0.105881 0.400078 0.942109
689 1 0.0273397 0.264077 0.980323
346 1 0.499009 0.258147 0.659981
823 1 0.379657 0.147453 0.519432
255 1 0.177826 0.39111 0.693381
197 1 0.262821 0.26133 0.610683
243 1 0.0705687 0.281131 0.799928
145 1 0.00647784 0.32409 0.815035
118 1 0.169887 0.156014 0.558135
107 1 0.476523 0.393779 0.941297
2037 1 0.445313 0.291366 0.910931
1712 1 0.418387 0.0756737 0.51887
428 1 0.0175595 0.201321 0.608558
1252 1 0.0842659 0.453033 0.873335
685 1 0.365509 0.315263 0.605017
972 1 0.201852 0.0998041 0.765947
1117 1 0.176653 0.501857 0.91478
1711 1 0.023862 0.405508 0.990253
269 1 0.0115694 0.474665 0.954464
391 1 0.368026 0.168547 0.663017
1260 1 0.337045 0.27213 0.869781
746 1 0.275452 0.262503 0.691231
1781 1 0.335286 0.377077 0.569446
639 1 0.425101 0.218978 0.680569
742 1 0.30122 0.464644 0.555448
2012 1 0.235986 0.387286 0.97597
1283 1 0.211135 0.437555 0.647137
1894 1 0.330026 0.252674 0.647296
730 1 0.269534 0.266361 0.511872
420 1 0.351257 0.0182517 0.75807
432 1 0.0833708 0.328198 0.639001
1379 1 0.187786 0.233147 0.595953
1896 1 0.13949 0.281783 0.626485
1278 1 0.164004 0.311465 0.914139
1427 1 0.405811 0.0698789 0.833051
224 1 0.312533 0.0635792 0.835844
833 1 0.00870681 0.479727 0.609671
1578 1 0.32995 0.0943282 0.671855
917 1 0.10363 0.254271 0.72631
979 1 0.0403187 0.0547802 0.841939
1963 1 0.00605455 0.0445378 0.524473
1809 1 0.2578 0.253704 0.901053
731 1 0.409587 0.108393 0.65853
388 1 0.292061 0.190119 0.655709
234 1 0.342846 0.0319109 0.604754
1212 1 0.299282 0.132696 0.59385
214 1 0.219842 0.190765 0.785349
106 1 0.348112 0.407869 0.719651
1349 1 0.24095 0.162977 0.888544
1624 1 0.258665 0.137454 0.709515
1248 1 0.482863 0.308641 0.729797
701 1 0.318446 0.364862 0.652911
415 1 0.486021 0.310197 0.583287
1453 1 0.108508 0.0576842 0.746237
181 1 0.201013 0.256174 0.666006
1183 1 0.137843 0.0256771 0.622059
1870 1 0.105353 0.474912 0.50328
1528 1 0.440799 0.048643 0.895176
337 1 0.467504 0.496451 0.950392
78 1 0.00434658 0.0489982 0.906903
648 1 0.444848 0.288971 0.828731
1759 1 0.289798 0.338115 0.854986
317 1 0.240565 0.0965719 0.536517
392 1 0.402506 0.00909991 0.573323
1704 1 0.425315 0.205278 0.769357
1961 1 0.33281 0.156629 0.723154
780 1 0.432192 0.00474257 0.7657
796 1 0.313536 0.457147 0.972283
140 1 0.128421 0.209927 0.972349
1521 1 0.242833 0.108013 0.637953
1768 1 0.397479 0.147812 0.816065
238 1 0.473098 0.399734 0.506055
829 1 0.357569 0.23247 0.712753
772 1 0.180419 0.252595 0.735902
1576 1 0.0211537 0.21481 0.694728
385 1 0.29403 0.218841 0.754431
775 1 0.0565219 0.323313 0.506096
462 1 0.0403597 0.327228 0.719929
1239 1 0.0397932 0.210891 0.529996
2045 1 0.37459 0.12272 0.597428
1542 1 0.200199 0.324134 0.730385
790 1 0.416296 0.137231 0.730063
793 1 0.477989 0.0765291 0.672811
85 1 0.142153 0.471866 0.76517
883 1 0.0381162 0.238277 0.910985
31 1 0.272615 0.407004 0.691792
1274 1 0.378386 0.485196 0.977365
1072 1 0.344489 0.0564809 0.919543
258 1 0.137022 0.311867 0.699506
898 1 0.119006 0.40798 0.804678
1749 1 0.151875 0.445491 0.988717
1357 1 0.287884 0.0414112 0.717361
1933 1 0.147777 0.00103916 0.77075
389 1 0.0813076 0.484472 0.621311
957 1 0.119431 0.381894 0.735995
66 1 0.159277 0.24533 0.821952
1416 1 0.275571 0.200526 0.55654
1133 1 0.0349253 0.0443677 0.614552
1582 1 0.256861 0.27935 0.765133
1119 1 0.11307 0.314485 0.558617
909 1 0.487783 0.375469 0.864825
1697 1 0.140623 0.301218 0.777376
567 1 0.294419 0.341896 0.725021
1396 1 0.280001 0.0976751 0.768061
914 1 0.371649 0.424209 0.795521
3 1 0.226442 0.433098 0.840863
1722 1 0.165182 0.344628 0.59754
1145 1 0.317063 0.0948292 0.50937
908 1 0.412795 0.416676 0.560604
364 1 0.0475572 0.29106 0.585303
105 1 0.419724 0.337462 0.557819
443 1 0.273978 0.480254 0.665662
1967 1 0.42683 0.348727 0.761074
614 1 0.230842 0.479811 0.969529
1268 1 0.309025 0.379617 0.931412
1343 1 0.354656 0.219565 0.809341
1452 1 0.165542 0.390065 0.543069
1795 1 0.145175 0.180065 0.739756
303 1 0.217104 0.306347 0.971133
248 1 0.257798 0.0473282 0.904131
1614 1 0.449963 0.108216 0.787208
1539 1 0.464604 0.0821451 0.578002
1355 1 0.365048 0.0911745 0.759582
924 1 0.113808 0.0868262 0.959446
1338 1 0.267846 0.239385 0.828449
59 1 0.49585 0.149542 0.703008
1706 1 0.236003 0.106729 0.944836
619 1 0.107605 0.269213 0.878285
1099 1 0.159055 0.0657814 0.81322
1383 1 0.36358 0.180321 0.941734
1670 1 0.116957 0.403411 0.649641
809 1 0.160738 0.14451 0.945784
431 1 0.038672 0.414997 0.91431
1367 1 0.0523481 0.195707 0.97632
1328 1 0.465296 0.225517 0.565536
1849 1 0.10098 0.191672 0.605996
1917 1 0.484249 0.0380918 0.512766
1101 1 0.252213 0.0985918 0.849943
157 1 0.387281 0.107569 0.894148
1635 1 0.311202 0.467734 0.842255
1777 1 0.449213 0.194176 0.971436
1210 1 0.291898 0.328141 0.986705
1696 1 0.492716 0.163077 0.620865
1189 1 0.0691435 0.437808 0.708303
135 1 0.371617 0.29538 0.789846
2033 1 0.272311 0.0374801 0.511532
565 1 0.246188 0.344078 0.798918
1908 1 0.189802 0.305879 0.842515
41 1 0.446373 0.392062 0.701694
1791 1 0.373126 0.341408 0.708495
1196 1 0.212755 0.214261 0.521349
1688 1 0.329621 0.439091 0.622567
1846 1 0.150422 0.0810775 0.570294
1250 1 0.195886 0.409249 0.771891
299 1 0.243383 0.470194 0.782324
1070 1 0.447501 0.121904 0.930586
1376 1 0.342714 0.492027 0.746368
1006 1 0.491628 0.228517 0.737082
1692 1 0.0478911 0.313031 0.874613
1263 1 0.452186 0.442585 0.836033
1798 1 0.205284 0.0552351 0.693203
896 1 0.452436 0.463966 0.62397
674 1 0.364 0.330413 0.929272
1709 1 0.0445871 0.089556 0.772455
340 1 0.0440897 0.344295 0.942282
1206 1 0.40562 0.48859 0.802819
2038 1 0.423975 0.221084 0.850642
768 1 0.0740446 0.0706919 0.557766
188 1 0.0374219 0.072675 0.692705
76 1 0.428845 0.314968 0.666971
316 1 0.0657728 0.181867 0.825333
811 1 0.130609 0.47235 0.689442
1782 1 0.201116 0.208472 0.956995
1247 1 0.154985 0.456817 0.845906
171 1 0.344775 0.0267347 0.500584
206 1 0.489119 0.45329 0.700114
611 1 0.0938501 0.289682 0.952622
1761 1 0.090275 0.434064 0.573396
1673 1 0.315085 0.273352 0.94544
589 1 0.417253 0.269868 0.73219
1512 1 0.479731 0.49753 0.796719
1627 1 0.129124 0.350174 0.855441
598 1 0.215449 0.0350326 0.615829
504 1 0.396555 0.240456 0.606053
110 1 0.339169 0.359491 0.800373
1755 1 0.230609 0.326264 0.660885
933 1 0.186914 0.012081 0.546222
302 1 0.0859564 0.115615 0.850754
1675 1 0.0262228 0.113246 0.982559
978 1 0.329238 0.279813 0.550943
867 1 0.011669 0.346293 0.644199
390 1 0.0236482 0.397911 0.578517
1430 1 0.236855 0.488674 0.592431
998 1 0.157874 0.361459 0.980789
1136 1 0.284453 0.409763 0.767433
1336 1 0.459174 0.0796672 0.993363
563 1 0.0926447 0.148774 0.54533
1598 1 0.142198 0.0949233 0.696259
1007 1 0.472519 0.386168 0.589502
459 1 0.228119 0.348628 0.902585
844 1 0.173073 0.452136 0.585514
1204 1 0.152162 0.166842 0.832662
897 1 0.0570063 0.453308 0.778409
1562 1 0.413263 0.411223 0.988732
287 1 0.355519 0.190496 0.573948
581 1 0.440663 0.337184 0.995861
1805 1 0.329181 0.400088 0.86239
572 1 0.401162 0.453921 0.677655
1718 1 0.475254 0.324212 0.509406
1275 1 0.25454 0.422998 0.908283
506 1 0.41003 0.375129 0.630602
1818 1 0.174427 0.133763 0.63854
1679 1 0.0812037 0.106526 0.624412
1527 1 0.464165 0.146294 0.542013
1703 1 0.229416 0.453975 0.514926
610 1 0.318464 0.142596 0.818481
806 1 0.0200342 0.134752 0.567172
1966 1 0.3094 0.124462 0.909797
604 1 0.474352 0.142084 0.855588
1243 1 0.180255 0.114917 0.884438
1996 1 0.294631 0.204066 0.970855
1240 1 0.402385 0.347568 0.845372
930 1 0.317822 0.192436 0.878368
593 1 0.234674 0.366757 0.527112
1543 1 0.0209938 0.135352 0.659428
949 1 0.27007 0.405141 0.605672
1929 1 0.400163 0.0427961 0.70235
34 1 0.117931 0.123088 0.779631
1281 1 0.39096 0.25085 0.944505
1773 1 0.347511 0.467643 0.908322
1701 1 0.0494834 0.381109 0.773354
778 1 0.127154 0.0658142 0.888873
170 1 0.423239 0.427647 0.904601
1746 1 0.47465 0.22152 0.904052
1388 1 0.0503936 0.178721 0.751716
1814 1 0.199049 0.0105988 0.85268
1779 1 0.00543885 0.263216 0.768256
1232 1 0.491255 0.0108418 0.645192
289 1 0.389296 0.484715 0.583534
1857 1 0.0964864 0.0051818 0.824609
1931 1 0.0502314 0.00776074 0.745026
1806 1 0.363037 0.335551 0.512193
1120 1 0.488682 0.048384 0.793198
590 1 0.237407 0.648948 0.0655028
1058 1 0.10973 0.875751 0.367118
35 1 0.493327 0.500542 0.0194184
1157 1 0.238034 0.578117 0.104825
1834 1 0.17699 0.828517 0.189945
325 1 0.42657 0.579443 0.0771067
10 1 0.0330942 0.933967 0.486705
1179 1 0.10988 0.951918 0.342574
143 1 0.0607594 0.64203 0.0758516
1371 1 0.402278 0.558955 0.260544
1733 1 0.180244 0.632454 0.445104
290 1 0.0838028 0.576994 0.0522921
359 1 0.395519 0.67571 0.0213129
785 1 0.0504005 0.532888 0.260813
1466 1 0.393908 0.906908 0.124537
1526 1 0.450675 0.612753 0.149341
1990 1 0.138131 0.610394 -0.00200047
1888 1 0.213321 0.86025 0.494784
1659 1 0.00972215 0.846554 0.362428
517 1 0.351258 0.936571 0.300138
719 1 0.413638 0.542065 0.00967343
1486 1 0.334379 0.876219 0.0908836
695 1 0.465006 0.892548 0.400994
1169 1 0.47463 0.844735 0.0696934
679 1 0.011081 0.635848 0.306531
1024 1 0.34699 0.924875 0.226197
1020 1 0.239373 0.530217 0.16121
788 1 0.166119 0.961958 0.165045
250 1 0.258504 0.997694 0.425153
798 1 0.477282 0.556809 0.388776
1995 1 0.239318 0.707238 0.00673442
1954 1 0.39349 0.646006 0.116796
1536 1 0.365771 0.60999 0.0285024
1841 1 0.0549449 0.809392 0.11934
276 1 0.336396 0.867417 0.0152097
952 1 0.219518 0.605126 0.230925
1378 1 0.13023 0.928656 0.111463
422 1 0.250861 0.816634 0.0548617
24 1 0.329863 0.696945 0.0033778
1213 1 0.437142 0.843585 0.15425
279 1 0.0926996 0.792792 0.000968021
600 1 0.447359 0.696766 0.183738
856 1 0.276749 0.804114 0.215455
1226 1 0.425388 0.883727 0.221391
2009 1 0.0838605 0.571612 0.465599
380 1 0.325844 0.551243 0.439502
683 1 0.29193 0.931113 0.00429371
1969 1 0.307398 0.952291 0.160941
1716 1 0.327774 0.725501 0.431928
1368 1 0.434542 0.930448 0.343627
1205 1 0.231497 0.516955 0.0325994
765 1 0.139541 0.64065 0.312734
226 1 0.389166 0.746028 0.0229061
1109 1 0.0249339 0.747845 0.343876
857 1 0.0804509 0.918329 0.184295
1944 1 0.390186 0.623325 0.212309
423 1 0.130905 0.895637 0.0423371
1524 1 0.444843 0.686968 0.084357
272 1 0.150646 0.587516 0.257909
1632 1 0.327835 0.565007 0.166294
192 1 0.0721596 0.688422 0.181052
282 1 0.484356 0.820912 0.420583
324 1 0.120523 0.778091 0.130041
993 1 0.259205 0.610338 0.1668
919 1 0.431494 0.771369 0.161866
1400 1 0.0178565 0.683703 0.482327
1579 1 0.214842 0.641949 0.303278
144 1 0.151772 0.7358 0.0503484
497 1 0.323393 0.803371 0.0790054
747 1 0.259292 0.804294 0.13687
2001 1 0.495186 0.889644 0.234668
627 1 0.145047 0.889051 0.47858
164 1 0.191022 0.959605 0.0819826
427 1 0.244049 0.877638 0.151013
1121 1 0.0686409 0.882483 0.113604
2030 1 0.0353402 0.599985 0.236267
1776 1 0.45656 0.943489 0.0427139
1926 1 0.0836739 0.695962 0.430059
690 1 0.33204 0.691454 0.248594
1313 1 0.105344 0.524465 0.409676
233 1 0.0336683 0.627196 0.381015
129 1 0.000614284 0.679079 0.0424339
1909 1 0.0166454 0.809616 0.42192
1255 1 0.0980447 0.628819 0.136291
1458 1 0.0175347 0.622024 0.167923
212 1 0.426277 0.714061 0.259839
1315 1 0.107097 0.831642 0.250843
1938 1 0.32868 0.755066 0.157429
377 1 0.354669 0.710094 0.0837262
946 1 0.260837 0.706761 0.290014
1166 1 0.215121 0.518294 0.365401
591 1 0.0616589 0.899275 0.253347
1595 1 0.0489617 0.762098 0.0570154
904 1 0.226145 0.678084 0.164791
1040 1 0.458573 0.572165 0.461523
1541 1 0.153041 0.914268 0.220764
1443 1 0.313737 0.883919 0.162871
649 1 0.349539 0.79834 0.454723
173 1 0.0241642 0.787477 0.272786
225 1 0.0729746 0.745412 0.224039
723 1 0.0245279 0.961584 0.211418
1431 1 0.0993633 0.63452 0.230465
2008 1 0.196601 0.690724 0.24055
1490 1 0.320799 0.602956 0.0910165
1130 1 0.236313 0.944685 0.195491
239 1 0.350774 0.500906 0.239373
199 1 0.152952 0.679063 0.141362
623 1 0.0327872 0.945713 0.305989
1922 1 0.34038 0.604845 0.261456
291 1 0.425168 0.774825 0.0846219
543 1 0.344641 0.840337 0.240308
435 1 0.202959 0.950939 0.269434
452 1 0.170721 0.749483 0.178218
404 1 0.36094 0.828553 0.343072
1182 1 0.106561 0.991497 0.249732
715 1 0.430874 0.688844 0.336134
1083 1 0.101515 0.837539 0.172202
1907 1 0.389014 0.915519 0.0419589
232 1 0.410922 0.966979 0.192625
1451 1 0.489959 0.624707 0.358181
1173 1 0.103893 0.971917 0.0526496
1530 1 0.290685 0.98283 0.235079
229 1 0.453688 0.752574 0.379489
1046 1 0.119713 0.823819 0.0722488
344 1 0.246248 0.590257 0.482363
1910 1 0.427056 0.538925 0.32475
524 1 0.393388 0.989408 0.263888
1519 1 0.156739 0.569251 0.0576266
1113 1 0.0456273 0.699886 0.276455
295 1 0.467483 0.940576 0.459561
1397 1 0.260686 0.913732 0.0878003
369 1 0.173815 0.807904 0.269438
646 1 0.213204 0.71735 0.0951386
1729 1 0.0321014 0.519609 0.0605959
36 1 0.183034 0.859633 0.10733
568 1 0.496612 0.634195 0.215167
947 1 0.482569 0.627433 0.03999
1496 1 0.326816 0.641029 0.179053
1382 1 0.0692569 0.862152 0.0154345
820 1 0.267208 0.661703 0.23361
1720 1 0.0703098 0.545491 0.192243
2 1 0.0656069 0.844255 0.31353
89 1 0.191397 0.787705 0.0961755
125 1 0.27276 0.907811 0.25284
1663 1 0.174326 0.810519 0.0274072
387 1 0.225572 0.901529 0.339767
1322 1 0.175435 0.727509 0.313572
477 1 0.197852 0.517162 0.222139
678 1 0.177828 0.542272 0.434765
894 1 0.496523 0.959049 0.391907
1087 1 0.364499 0.82582 0.139811
741 1 0.405734 0.843143 0.0580946
671 1 0.019341 0.759858 0.174593
707 1 0.287335 0.611198 0.0251116
109 1 0.243279 0.679455 0.450631
367 1 0.298177 0.691335 0.129641
1651 1 0.160498 0.790015 0.354383
1826 1 0.0857003 0.591025 0.292001
625 1 0.242928 0.744207 0.18849
1523 1 0.405748 0.52793 0.428434
1535 1 0.1799 0.644662 0.37374
1064 1 0.0946297 0.716664 0.0940276
608 1 0.486206 0.778928 0.483343
1446 1 0.2406 0.759706 0.341713
2042 1 0.0517819 0.558063 0.359213
1767 1 0.333317 0.760415 0.266908
1114 1 0.0306132 0.918165 0.051113
1555 1 0.209713 0.874104 0.248719
17 1 0.491282 0.503468 0.26303
985 1 0.125449 0.698485 0.264029
402 1 0.251722 0.833681 0.3487
1199 1 0.343886 0.970959 0.362441
1233 1 0.120381 0.931399 0.424083
843 1 0.292837 0.537488 0.0753903
1320 1 0.217157 0.907053 0.430827
2035 1 0.326877 0.87482 0.440212
191 1 0.38219 0.772777 0.389455
150 1 0.00930036 0.83491 0.0628916
989 1 0.201216 0.960478 0.379356
635 1 0.159398 0.885829 0.301397
419 1 0.333836 0.56831 0.362634
1843 1 0.289604 0.618164 0.329244
2043 1 0.118031 0.600676 0.400988
139 1 0.18239 0.97889 0.0132109
1019 1 0.257509 0.50136 0.305831
1925 1 0.328598 0.66563 0.388113
288 1 0.487986 0.869609 0.492191
1824 1 0.21738 0.561529 0.289759
455 1 0.384605 0.629934 0.448567
1009 1 0.416622 0.807335 0.225683
1803 1 0.168971 0.809664 0.45712
1570 1 0.284868 0.962095 0.307262
1518 1 0.380123 0.704508 0.166895
661 1 0.267076 0.832854 0.43868
502 1 0.0482472 0.757459 0.479041
1364 1 0.18721 0.512935 0.0949577
574 1 0.330111 0.986341 0.442155
1730 1 0.408284 0.856059 0.438001
991 1 0.183479 0.851948 0.384864
30 1 0.289767 0.932506 0.416252
988 1 0.358455 0.724533 0.335708
179 1 0.173383 0.705741 0.422496
1977 1 0.22636 0.767114 0.421098
1510 1 0.307813 0.795761 0.384619
960 1 0.433524 0.826161 0.360949
800 1 0.424882 0.972228 0.407914
2044 1 0.0381435 0.90338 0.401675
1581 1 0.280298 0.500322 0.396066
1721 1 0.0965494 0.674592 0.363467
929 1 0.49848 0.897555 0.316944
1890 1 0.059561 0.989571 0.401296
99 1 0.121248 0.534107 0.124363
1150 1 0.412914 0.976604 0.097751
1295 1 0.246255 0.69058 0.362891
592 1 0.397557 0.552809 0.186724
77 1 0.125761 0.752466 0.460084
968 1 0.294856 0.818167 0.292051
1642 1 0.443759 0.630635 0.265732
628 1 0.0932347 0.755562 0.297113
804 1 0.12256 0.542101 0.336494
938 1 0.418318 0.76399 0.452633
1949 1 0.276874 0.557031 0.221318
1622 1 0.40057 0.778876 0.303486
1757 1 0.380145 0.907408 0.394483
1694 1 0.287515 0.730318 0.0593043
1011 1 0.155751 0.645933 0.0768219
927 1 0.0784753 0.764076 0.393474
498 1 0.119641 0.517616 0.24581
204 1 0.161118 0.967076 0.473254
84 1 0.315746 0.884743 0.344644
102 1 0.402132 0.874938 0.297742
1568 1 0.342752 0.954439 0.0935008
1015 1 0.0826992 0.705185 0.0139257
761 1 0.475268 0.914519 0.128988
935 1 0.451354 0.532248 0.139473
1835 1 0.250866 0.51193 0.472692
704 1 0.463384 0.839202 0.27323
1280 1 0.268473 0.609694 0.410407
1237 1 0.280091 0.748359 0.487316
2005 1 0.17374 0.604278 0.174899
672 1 0.36895 0.525485 0.100017
1515 1 0.479944 0.563639 0.199071
1162 1 0.22488 0.881354 0.0195056
108 1 0.360846 0.634745 0.329227
1836 1 0.0998251 0.824727 0.436513
320 1 0.409329 0.594288 0.387417
456 1 0.0166279 0.95261 0.114677
1683 1 0.399317 0.692855 0.410104
2031 1 0.46495 0.657781 0.422829
414 1 0.0376379 0.836397 0.2118
1937 1 0.465428 0.976626 0.28338
1339 1 0.483703 0.726948 0.0381015
926 1 0.245411 0.976652 0.12651
376 1 0.480582 0.986011 0.210199
655 1 0.00578288 0.878728 0.147116
356 1 0.336058 0.598962 0.502172
343 1 0.0763295 0.645225 0.497178
2017 1 0.00306073 0.678381 0.211561
1848 1 0.0416094 0.832718 0.493891
1948 1 0.413254 0.522756 0.506723
767 1 0.328059 0.719926 0.851308
311 1 0.409749 0.882047 0.584448
1310 1 0.161015 0.945324 0.561743
964 1 0.015201 0.909644 0.948052
711 1 0.00854174 0.728853 0.77403
832 1 0.0457671 0.544608 0.59689
64 1 0.337709 0.968529 0.872754
98 1 0.408411 0.70884 0.808484
213 1 0.28144 0.737684 0.57226
1508 1 0.215887 0.822731 0.617562
766 1 0.15998 0.681041 0.992864
996 1 0.0498341 0.64109 0.978787
88 1 0.408141 0.757768 0.594709
1017 1 0.170122 0.703756 0.715311
830 1 0.423097 0.554518 0.65402
1178 1 0.12414 0.747963 0.589894
1816 1 0.22353 0.913203 0.715444
1653 1 0.227881 0.555502 0.946181
2019 1 0.332608 0.865951 0.544328
406 1 0.198058 0.75062 0.511993
1605 1 0.293772 0.53163 0.810689
94 1 0.480635 0.504834 0.52482
87 1 0.0620212 0.5241 0.527859
1245 1 0.439531 0.902173 0.853376
1231 1 0.276265 0.775179 0.960949
1481 1 0.305551 0.917791 0.7533
205 1 0.377148 0.632934 0.947649
836 1 0.392237 0.912742 0.65256
722 1 0.458379 0.505526 0.879891
973 1 0.20085 0.910871 0.949047
2011 1 0.338309 0.987743 0.689514
1871 1 0.408578 0.701798 0.928071
186 1 0.49456 0.606956 0.657333
1479 1 0.126128 0.632447 0.728669
395 1 0.0311993 0.971766 0.635938
928 1 0.123291 0.541335 0.74744
1664 1 0.467636 0.890701 0.776865
587 1 0.346729 0.958418 0.622475
1793 1 0.0956352 0.684429 0.678967
451 1 0.255126 0.676907 0.612095
839 1 0.272485 0.52402 0.737177
490 1 0.290282 0.84918 0.722107
2046 1 0.436238 0.822286 0.626705
2036 1 0.348272 0.503813 0.658922
1347 1 0.256093 0.662545 0.692691
1924 1 0.0151735 0.677892 0.843574
1425 1 0.241262 0.805099 0.548157
67 1 0.094656 0.765618 0.69872
189 1 0.433214 0.556521 0.810902
1294 1 0.341613 0.958386 0.545662
559 1 0.264642 0.564839 0.672377
1372 1 0.07708 0.671443 0.798053
708 1 0.242638 0.860344 0.778578
1889 1 0.16244 0.519293 0.983419
733 1 0.143905 0.524142 0.606648
787 1 0.383555 0.881275 0.937924
1429 1 0.195108 0.726298 0.582298
858 1 0.0267351 0.733189 0.651281
264 1 0.0031281 0.628504 0.904467
2002 1 0.318354 0.585926 0.957845
1955 1 0.267506 0.978982 0.862153
1946 1 0.0872276 0.890232 0.550644
808 1 0.428079 0.828041 0.905392
2003 1 0.120531 0.995843 0.909888
1270 1 0.0969806 0.607642 0.64012
1786 1 0.426534 0.604766 0.514764
357 1 0.160074 0.804167 0.750537
1902 1 0.259237 0.871317 0.892829
642 1 0.218152 0.942674 0.508305
697 1 0.234463 0.502556 0.864239
1399 1 0.293912 0.795214 0.665991
965 1 0.422654 0.994723 0.501333
558 1 0.463721 0.765346 0.725217
1763 1 0.230052 0.929885 0.64014
1875 1 0.154202 0.806005 0.664603
1577 1 0.405278 0.830093 0.507461
1381 1 0.363651 0.947021 0.978509
136 1 0.0390421 0.624292 0.576225
1080 1 0.477482 0.804692 0.793291
73 1 0.428532 0.758056 0.882124
1265 1 0.0419057 0.52255 0.791475
1480 1 0.297216 0.872764 0.633627
1674 1 0.284534 0.660428 0.525619
866 1 0.243508 0.738238 0.6524
1045 1 0.386119 0.711534 0.645276
347 1 0.387607 0.519006 0.8727
1785 1 0.364138 0.819855 0.605863
791 1 0.169386 0.649738 0.631857
281 1 0.380063 0.682483 0.571306
283 1 0.304041 0.547838 0.598439
638 1 0.16995 0.874794 0.775746
1158 1 0.439651 0.66784 0.745113
1032 1 0.144652 0.60121 0.579939
437 1 0.487203 0.527618 0.678905
966 1 0.0680902 0.805515 0.62542
153 1 0.311152 0.716465 0.640732
948 1 0.272612 0.759972 0.881227
1751 1 0.424415 0.632385 0.628628
1547 1 0.363709 0.597662 0.576117
159 1 0.0706988 0.919644 0.688166
717 1 0.345835 0.701007 0.505087
1732 1 0.383027 0.786189 0.677785
103 1 0.0447854 0.850667 0.703384
122 1 0.485566 0.584297 0.968645
554 1 0.268117 0.733034 0.722521
1532 1 0.489037 0.818216 0.86343
1747 1 0.0525418 0.930568 0.780869
694 1 0.0370474 0.894405 0.853066
1999 1 0.484375 0.879185 0.908086