ITEM: TIMESTEP
100000
ITEM: NUMBER OF ATOMS
2048
ITEM: BOX BOUNDS pp pp pp
0.0000000000000000e+00 1.3679807573413575e+01
0.0000000000000000e+00 1.3679807573413575e+01
0.0000000000000000e+00 1.3679807573413575e+01
ITEM: ATOMS id type xs ys zs
121 1 0.0658592 0.0143878 0.384432
884 1 0.0631196 0.447734 0.465606
2017 1 0.412664 0.481079 0.254811
943 1 0.46908 0.141006 0.0513816
1636 1 0.158247 0.197475 0.219352
1955 1 0.309719 0.0616513 0.1437
1804 1 0.0430566 0.243969 0.0720938
482 1 0.272939 0.485484 0.0459334
895 1 0.375492 0.20068 0.0785368
808 1 0.0303637 0.156998 0.198093
203 1 0.174383 0.0576513 0.169419
1210 1 0.316049 0.29321 0.448052
1681 1 0.455122 0.255103 0.20032
1338 1 0.404404 0.0869693 0.300183
168 1 0.476157 0.437165 0.204858
1006 1 0.0766264 0.0645607 0.0208492
1831 1 0.0704892 0.133051 0.0610087
1936 1 0.437158 0.0635547 0.474778
1050 1 0.456493 0.363612 0.155934
1508 1 0.455942 0.0735615 0.0452514
1339 1 0.406842 0.318049 0.0462225
1077 1 0.310106 0.467712 0.169313
1665 1 0.0577618 0.409968 0.0618389
755 1 0.220841 0.284966 0.135017
1209 1 0.261035 0.289509 0.48849
1200 1 0.0545594 0.289014 0.178467
1497 1 0.359068 0.000818195 0.0264633
1469 1 0.0838041 0.28987 0.0200778
19 1 0.398089 0.00840731 0.18311
1726 1 0.263192 0.129127 0.159556
269 1 0.426446 0.025927 0.0943111
1655 1 0.322294 0.409 0.0973428
623 1 0.261545 0.411145 0.335326
22 1 0.181049 0.355698 0.115991
1273 1 0.175723 0.124149 0.358621
887 1 0.17992 0.0596486 0.0975622
1472 1 0.152659 0.177215 0.0741202
1170 1 0.496583 0.264991 0.0651337
836 1 0.4072 0.36983 0.441674
158 1 0.435207 0.325785 0.236265
1946 1 0.0889362 0.298155 0.439104
520 1 0.499161 0.294227 0.141329
1678 1 0.119403 0.254722 0.0911563
362 1 0.484395 0.014371 0.261493
736 1 0.185584 0.472666 0.242572
238 1 0.0555362 0.157703 0.40531
1559 1 0.128616 0.312329 0.145657
574 1 0.00551891 0.0263951 0.0584312
1842 1 0.280578 0.213224 0.47189
197 1 0.367519 0.261085 0.112109
1311 1 0.178799 0.192556 0.139614
8 1 0.406897 0.0116653 0.26572
1571 1 0.272287 0.197231 0.156146
1574 1 0.100263 0.0469944 0.0834176
85 1 0.0101221 0.0209947 0.305283
837 1 0.405118 0.108748 0.371173
1010 1 0.377923 0.308192 0.423731
30 1 0.471111 0.0469181 0.149256
530 1 0.269168 0.155538 0.38758
432 1 0.127164 0.0657778 0.301461
373 1 0.130538 0.455055 0.0209307
58 1 0.307565 0.334228 0.119195
569 1 0.347982 0.151738 0.132576
952 1 0.34523 0.0832459 0.0809483
1536 1 0.251385 0.0475142 0.0996429
458 1 0.327455 0.334738 0.0515783
1129 1 0.165059 0.394406 0.190698
742 1 0.229975 0.00494171 0.191867
694 1 0.434689 0.278928 0.118033
1046 1 0.394477 0.203322 0.153568
489 1 0.277307 0.0345428 0.28439
92 1 0.321686 0.399403 0.165571
1769 1 0.451392 0.451332 0.314242
1521 1 0.377138 0.106008 0.459159
797 1 0.326514 0.487278 0.0971005
1315 1 0.153877 0.393625 0.0601871
698 1 0.20382 0.403625 0.416312
1189 1 0.288712 0.488569 0.467272
1253 1 0.417205 0.40305 0.249556
188 1 0.18468 0.421558 0.29311
455 1 0.0924667 0.427531 0.194781
422 1 0.446941 0.461084 0.439241
868 1 0.117684 0.408753 0.279662
1805 1 0.333329 0.453861 0.0223931
1632 1 0.35687 0.390178 0.381614
198 1 0.30171 0.457929 0.386717
417 1 0.294604 0.222562 0.232866
1360 1 -0.000672346 0.351151 0.351207
1754 1 0.0736394 0.218774 0.209208
1380 1 0.484732 0.0349243 0.434466
1214 1 0.0692155 0.231581 0.453844
1429 1 0.183198 0.124127 0.173314
1248 1 0.43128 0.195202 0.272373
551 1 0.165359 0.106622 0.0121131
1713 1 0.014201 0.393446 0.289154
1415 1 0.0516814 0.0804257 0.270443
1596 1 0.195183 0.475666 0.0569665
901 1 0.0137403 0.442348 0.146769
1858 1 0.171535 0.259913 0.333547
1982 1 0.0831393 0.356776 0.237541
1491 1 0.385922 0.20158 0.333815
1179 1 0.445551 0.0479903 0.366813
616 1 0.196958 0.36827 0.0071517
1004 1 0.237568 0.0722111 0.0361595
1818 1 0.456641 0.196166 0.469893
71 1 0.435394 0.361641 0.321419
340 1 0.457543 0.364188 0.0724244
299 1 0.227408 0.49033 0.18125
880 1 0.210379 0.20887 0.0535572
1336 1 0.434036 0.298006 0.357819
898 1 0.321644 0.150363 0.0570097
1821 1 0.2094 0.139302 0.103909
1860 1 0.256048 0.0228971 0.435414
151 1 0.112562 0.358227 0.0184774
234 1 0.0859538 0.264284 0.309567
1807 1 0.0549768 0.13546 0.317541
309 1 0.469378 0.149065 0.327839
1199 1 0.0815857 0.203677 -0.000542573
1153 1 0.424543 0.155577 0.210879
998 1 0.277074 0.0990343 0.426749
519 1 0.427785 0.259645 0.289283
803 1 0.498905 0.330481 0.400539
278 1 0.460415 0.176079 0.151056
80 1 0.343509 0.140548 0.341484
1398 1 0.272044 0.476241 0.236776
1181 1 0.00877127 0.101786 0.362781
1116 1 0.463065 0.311627 0.00569413
709 1 0.211062 0.33946 0.186085
1392 1 0.431544 0.171582 0.384036
592 1 0.40078 0.127051 0.0879115
1283 1 0.449516 0.394781 0.382611
1703 1 0.118867 0.326422 0.298052
254 1 0.354799 0.330123 0.253787
1112 1 0.230325 0.388037 0.250943
128 1 0.251835 0.38417 0.116394
331 1 0.134764 0.111238 0.119609
1234 1 0.375442 0.343529 0.151426
1990 1 0.469383 0.120156 0.433381
1872 1 0.445033 0.44358 0.0375799
1569 1 0.365678 0.460262 0.436411
395 1 0.341959 0.257117 0.276919
411 1 0.213704 0.184383 0.43935
256 1 0.038338 0.186352 0.122411
1786 1 0.283678 0.124846 0.255533
827 1 0.39426 0.401214 0.0831156
504 1 0.455418 0.211707 0.0296636
1056 1 0.36924 0.152869 0.275147
610 1 0.107388 0.380773 0.146936
844 1 0.315845 0.122791 0.492958
179 1 0.119673 0.496145 0.263761
990 1 0.232526 0.415008 0.0548942
1552 1 0.295129 0.261831 0.135481
48 1 0.170804 0.428902 0.118788
638 1 0.0463533 0.324757 0.29883
822 1 0.257503 0.320889 0.0622166
1584 1 0.0125506 0.270601 0.435739
2035 1 0.425503 0.238143 0.401253
833 1 0.0895481 0.448562 0.118739
1407 1 0.410466 0.0193311 0.426241
1675 1 0.280546 0.360184 0.409904
970 1 0.319997 0.00448329 0.38318
370 1 0.402077 0.252712 0.473852
1094 1 0.0256169 0.357152 0.175498
1502 1 0.0875332 0.468038 0.385473
1133 1 0.172694 0.270764 0.217618
596 1 0.148119 0.16383 0.302002
2019 1 0.159726 0.312744 0.0559107
342 1 0.253715 0.10901 0.323174
68 1 0.0776121 0.00301554 0.283025
1554 1 0.226614 0.359225 0.474156
783 1 0.0070823 0.188715 0.447141
1824 1 0.0826153 0.0943207 0.366297
685 1 0.170921 0.0704568 0.245618
1797 1 0.0812815 0.0536963 0.209937
185 1 0.0902748 0.318023 0.359452
1460 1 0.048172 0.338671 0.0708188
53 1 0.0897819 0.161374 0.485555
1784 1 0.181582 0.0491663 0.461421
1775 1 0.232284 0.471164 0.39516
210 1 0.310075 0.218616 0.336417
440 1 0.0794851 0.386719 0.400633
100 1 0.358338 0.438571 0.319771
705 1 0.199807 0.333394 0.381687
212 1 0.196779 0.0498645 0.319995
1442 1 0.150353 0.394346 0.36304
1545 1 0.139333 0.25163 0.467356
410 1 0.338787 0.409331 0.246454
1257 1 0.330171 0.259561 0.390519
790 1 0.249146 0.0719904 0.198092
1627 1 0.0966951 0.0550198 0.439582
224 1 0.243358 0.456939 0.111742
419 1 0.33941 0.15284 0.426714
326 1 0.342121 0.0688987 0.401761
1333 1 0.0671574 0.452109 0.261659
1697 1 0.48912 0.373708 0.259321
213 1 0.262672 0.290234 0.267887
1783 1 0.418061 0.431819 0.146843
1314 1 0.240529 0.257587 0.198419
1374 1 0.318389 0.0711929 0.216464
1992 1 0.421582 0.0978367 0.16107
1232 1 0.247308 0.027768 0.364853
1585 1 0.233354 0.231186 0.310781
1792 1 0.0683998 0.497316 0.173912
88 1 0.334603 0.062805 0.316006
1987 1 0.131274 0.45934 0.327577
1173 1 0.415754 0.486317 0.377926
61 1 0.304493 0.341275 0.205057
252 1 0.191412 0.30452 0.498813
1231 1 0.0506999 0.0844573 0.127379
1940 1 0.352144 0.240741 0.196595
463 1 0.0270915 0.211215 0.333399
1507 1 0.24178 0.115413 0.487216
1437 1 0.159999 0.186815 0.387966
90 1 0.0668559 0.254802 0.387618
1432 1 0.455872 0.307041 0.453151
956 1 0.0582163 0.0844272 0.499224
1863 1 0.211946 0.0781936 0.401643
1852 1 0.364812 0.386543 0.0183013
739 1 0.0309437 0.246921 0.262674
1643 1 0.164306 0.357645 0.251233
305 1 0.220575 0.338553 0.301107
511 1 0.307995 0.373105 0.308113
867 1 0.260626 0.424021 0.465537
857 1 0.153735 0.287721 0.401392
1400 1 0.147372 0.123639 0.457368
771 1 0.135347 0.436387 0.454164
496 1 0.105262 0.200268 0.34833
1996 1 0.256699 0.288051 0.349774
1602 1 0.483059 0.117764 0.123516
1743 1 0.12395 0.132255 0.209673
549 1 0.143821 0.359134 0.427544
1306 1 0.355995 0.132101 0.211265
1401 1 0.308687 0.223424 0.0761605
965 1 0.354639 0.302569 0.334789
1755 1 0.432153 0.0591325 0.218968
683 1 0.408872 0.488454 0.0832337
774 1 0.219746 0.24045 0.383355
448 1 0.217971 0.161842 0.278112
942 1 0.0370911 0.420891 0.348791
570 1 0.104309 0.182645 0.140198
1741 1 0.0904572 0.280241 0.239817
1485 1 0.266846 0.494485 0.308935
63 1 0.0738264 0.495949 0.0428417
1588 1 0.00144605 0.277055 0.339123
469 1 0.497604 0.239329 0.316245
1580 1 0.366961 0.176562 0.496282
528 1 0.146616 0.175587 0.00333772
1027 1 0.442201 0.188846 0.923053
1321 1 0.261127 0.0716462 0.685064
267 1 0.214704 0.322202 0.935343
1434 1 0.232805 0.0705841 0.816615
693 1 0.372544 0.159065 0.807232
1356 1 0.264984 0.403322 0.794518
1879 1 0.455028 0.439277 0.826494
1114 1 0.280245 0.458369 0.847936
1192 1 0.113449 0.0247871 0.953439
98 1 0.133935 0.120007 0.596844
542 1 0.0589215 0.367784 0.600794
1814 1 0.220777 0.0603519 0.536832
414 1 0.403322 0.354799 0.768723
1359 1 0.055885 0.27884 0.731723
669 1 0.35355 0.18958 0.916728
1348 1 0.339196 0.255631 0.536285
1244 1 0.117257 0.411362 0.9559
2033 1 0.28183 0.467258 0.599884
1085 1 0.0534972 0.0655135 0.643549
1399 1 0.427371 0.0151262 0.561386
2020 1 0.249272 0.0141771 0.877623
666 1 0.456357 0.264647 0.929543
941 1 0.0540536 0.494673 0.854139
115 1 0.0815145 0.420895 0.675613
1197 1 0.375683 0.418438 0.76715
682 1 0.224892 0.299755 0.784308
588 1 0.306106 0.481425 0.709996
1770 1 0.107021 0.395513 0.810842
17 1 0.0728178 0.158778 0.555494
1428 1 0.457485 0.0466465 0.633459
635 1 0.384123 0.47309 0.973717
1459 1 0.112007 0.279278 0.880559
580 1 0.478952 0.0845921 0.877232
1151 1 0.0082806 0.305414 0.504217
1126 1 0.138265 0.264769 0.758204
1342 1 0.329915 0.122621 0.563122
1773 1 0.0595579 0.0972588 0.843353
846 1 0.149645 0.267444 0.671511
517 1 0.207696 0.401858 0.860275
1332 1 0.00884598 0.119556 0.630877
290 1 0.217824 0.307287 0.681502
1144 1 0.393774 0.362587 0.588653
1293 1 0.374225 0.00447337 0.894418
873 1 0.0757187 0.457475 0.562165
954 1 0.0895155 0.287907 0.529443
1394 1 0.1572 0.334284 0.717541
829 1 0.453191 0.428858 0.751186
1980 1 0.383049 0.296788 0.716056
1246 1 0.0400696 0.410323 0.993419
1302 1 0.2251 0.158185 0.968181
1145 1 0.152417 0.080823 0.661942
171 1 0.145814 0.189208 0.610873
1817 1 0.420915 0.244317 0.653366
425 1 0.0829091 0.313538 0.798285
1035 1 0.330515 0.0580205 0.695964
154 1 0.427717 0.485983 0.875874
1808 1 0.393453 0.435224 0.594211
33 1 0.427444 0.161845 0.606467
959 1 0.0636557 0.471957 0.969072
997 1 0.405595 0.28199 0.806605
1243 1 0.274426 0.323543 0.719763
1419 1 0.268228 0.381873 0.895666
840 1 0.160817 0.0587708 0.900934
1084 1 0.464051 0.0706716 0.758417
1617 1 0.0421287 0.317172 0.645424
103 1 0.220203 0.444664 0.718277
70 1 0.32569 0.498515 0.551411
228 1 0.284033 0.236771 0.623263
812 1 0.39044 0.319588 0.644285
142 1 0.0351543 0.0269008 0.924482
1505 1 0.470452 0.456014 0.920176
1086 1 0.417568 0.276506 0.587015
777 1 0.293431 0.402059 0.722499
1873 1 0.110143 0.0487229 0.574181
905 1 0.113332 0.311161 0.609672
86 1 0.195925 0.474782 0.575908
821 1 0.368146 0.226271 0.75488
109 1 0.0806793 0.169292 0.856299
1742 1 0.240656 0.132478 0.566178
162 1 0.070835 0.354203 0.720434
772 1 0.0886118 0.103195 0.952253
1378 1 0.117238 0.227971 0.937408
110 1 0.242287 0.263874 0.86103
1484 1 0.310567 0.325443 0.658968
1529 1 0.11567 0.0064929 0.879729
457 1 0.277946 0.0252904 0.949935
648 1 0.148992 0.106742 0.731366
2014 1 0.313139 0.264625 0.715214
1127 1 0.287599 0.160761 0.72539
330 1 0.297654 0.20118 0.566544
940 1 0.231642 0.231566 0.739566
645 1 0.185398 0.150431 0.657344
1968 1 0.22791 0.199965 0.583922
830 1 0.238075 0.398113 0.642607
380 1 0.330015 0.427498 0.942843
1107 1 0.0663368 0.331741 0.955127
915 1 0.210281 0.469554 0.833411
982 1 0.264634 0.350425 0.976061
1825 1 0.390772 0.0792251 0.736832
1921 1 0.0156983 0.370979 0.784418
743 1 0.475277 0.475697 0.613721
620 1 0.114486 0.474493 0.71981
1237 1 0.229193 0.213693 0.914469
1809 1 0.377296 0.0419924 0.968107
1564 1 0.155476 0.200875 0.795452
1760 1 0.332021 0.345591 0.914689
863 1 0.265532 0.147857 0.865098
1171 1 0.394543 0.00922968 0.78156
516 1 0.204925 0.228698 0.655827
1582 1 0.322945 0.179724 0.648166
1622 1 0.151093 0.0805558 0.523796
2008 1 0.267679 0.0403276 0.758487
1578 1 0.187884 0.413159 0.78412
552 1 0.0551238 0.133325 0.720439
346 1 0.339589 0.283828 0.605921
1700 1 0.46294 0.315702 0.760365
1166 1 0.4907 0.196828 0.576455
1090 1 0.305214 0.409338 0.641369
449 1 0.282645 0.112713 0.627904
1767 1 0.113299 0.385518 0.507417
1304 1 0.432617 0.23416 0.533178
1143 1 0.351629 0.241382 0.665478
65 1 0.367939 0.393325 0.504999
712 1 0.349606 0.36347 0.705845
34 1 0.448229 0.113151 0.664956
1025 1 0.15683 0.426305 0.683668
701 1 0.372691 0.4567 0.834703
1772 1 0.0260259 0.0365452 0.84898
650 1 0.0666973 0.0517843 0.713751
1674 1 0.223052 0.0814955 0.936076
801 1 0.400006 0.481936 0.512152
794 1 0.153407 0.0254117 0.713757
1346 1 0.191191 0.160917 0.860865
704 1 0.333747 0.0731809 0.913175
1489 1 0.243587 0.234571 0.986186
925 1 0.0832235 0.0155228 0.773021
2043 1 0.371844 0.280621 0.904919
1642 1 0.0427788 0.0898575 0.567772
902 1 0.363213 0.121789 0.871552
699 1 0.256616 0.469241 0.532557
518 1 0.248973 0.333493 0.621092
522 1 0.289256 0.264524 0.915651
756 1 0.091753 0.364123 0.887778
740 1 0.475578 0.377457 0.795557
155 1 0.282924 0.361914 0.522954
2009 1 0.186396 0.187805 0.508669
205 1 0.0409849 0.235882 0.870326
1464 1 0.250264 0.492485 0.661245
1513 1 0.221021 0.385603 0.558012
1527 1 0.421958 0.241864 0.869491
750 1 0.382884 0.0640814 0.52965
1625 1 0.132899 0.312801 0.961654
1430 1 0.374924 0.105973 0.634417
73 1 0.0259829 0.373011 0.505941
578 1 0.113607 0.145573 0.662029
1217 1 0.383801 0.0181816 0.632714
1504 1 0.020867 0.425723 0.88059
101 1 0.16081 0.362295 0.91132
1861 1 0.308708 0.419702 0.546823
1553 1 0.147768 0.408135 0.590241
253 1 0.166815 0.239607 0.864004
1222 1 0.305588 0.264481 0.990087
1733 1 0.0459758 0.202159 0.664115
1566 1 0.0342099 0.318103 0.872935
1827 1 0.146363 0.329539 0.824461
1092 1 0.207139 0.323773 0.858805
814 1 0.0251346 0.239616 0.956499
136 1 0.0376975 0.206747 0.749077
473 1 0.342173 0.311555 0.777215
838 1 0.229959 0.204702 0.816043
1657 1 0.494403 0.191553 0.712534
1648 1 0.0972304 0.217739 0.713026
43 1 0.220942 0.00916747 0.692106
1535 1 0.292118 0.124638 0.798382
738 1 0.453124 0.0378914 0.828291
265 1 0.391011 0.499591 0.658931
878 1 0.4832 0.354457 0.952036
1366 1 0.488421 0.0799644 0.541289
913 1 0.447097 0.455615 0.675621
1211 1 0.00218359 0.295738 0.802392
1621 1 0.464721 0.0318893 0.947321
904 1 0.0384367 0.452203 0.62074
894 1 0.309287 0.16014 0.975241
986 1 0.167905 0.33439 0.558277
390 1 0.0325011 0.144766 0.999339
820 1 0.408606 0.181968 0.685334
748 1 0.178307 0.355815 0.629606
1896 1 0.162975 0.127415 0.804384
385 1 0.0963501 0.152686 0.788052
491 1 0.298375 0.21676 0.857269
383 1 0.0873061 0.243755 0.627226
1269 1 0.158754 0.180737 0.721311
280 1 0.484739 0.157197 0.87431
557 1 0.138253 0.233783 0.546599
1493 1 0.389174 0.415821 0.896746
722 1 0.298252 0.250812 0.786448
1309 1 0.449031 0.151335 0.751883
434 1 0.48389 0.0102018 0.710767
1790 1 0.27151 0.287497 0.567983
1833 1 0.406497 0.146214 0.993486
724 1 0.368946 0.424231 0.67046
1855 1 0.486344 0.157998 0.968933
695 1 0.408505 0.334855 0.514698
1667 1 0.119837 0.460827 0.623981
1184 1 0.155227 0.0187902 0.793251
1363 1 0.165048 0.256433 0.997188
1673 1 0.436045 0.0948653 0.949117
609 1 0.306567 0.0478293 0.533696
483 1 0.098966 0.0833901 0.772514
275 1 0.113303 0.439728 0.872623
391 1 0.247276 0.45127 0.960688
474 1 0.427604 0.213453 0.793225
1576 1 0.392881 0.352957 0.951724
1481 1 0.168447 0.133124 0.922712
778 1 0.468722 0.298116 0.861212
1158 1 0.0410698 0.25224 0.569589
776 1 0.080642 0.230944 0.804856
1395 1 0.358769 0.486631 0.907883
192 1 0.018835 0.0943825 0.949806
334 1 0.427734 0.411598 0.973827
1227 1 0.126989 0.0703667 0.834007
757 1 0.413368 0.102249 0.803219
1240 1 0.354376 0.138507 0.727175
606 1 0.455662 0.403274 0.535396
327 1 0.363549 0.186663 0.585066
293 1 0.303328 0.0565008 0.848246
318 1 0.423946 0.386868 0.691273
1319 1 0.0501841 0.174076 0.926752
759 1 0.21174 0.0333062 0.983935
853 1 0.135297 0.398312 0.746992
634 1 0.477186 0.313822 0.576827
264 1 0.222471 0.129772 0.751224
1187 1 0.33561 0.367062 0.817686
312 1 0.479226 0.406766 0.602332
50 1 0.481964 0.380374 0.868166
1165 1 0.214898 0.089984 0.632453
746 1 0.403288 0.371811 0.835014
1263 1 0.240036 0.0202548 0.620566
1759 1 0.204927 0.266726 0.594507
127 1 0.321085 0.059004 0.607772
1608 1 0.020437 0.467018 0.717902
1258 1 0.0123676 0.127811 0.798486
1729 1 0.461395 0.318341 0.668023
439 1 0.0483991 0.436515 0.790138
1103 1 0.492479 0.22649 0.873
647 1 0.373825 0.283835 0.976814
899 1 0.32108 0.0690216 0.995538
659 1 0.0390738 0.0122711 0.551089
146 1 0.00449045 0.233559 0.506418
229 1 0.201846 0.434684 0.50177
402 1 0.134604 0.456573 0.521182
1623 1 0.118467 0.49283 0.821703
445 1 0.0162199 0.00798558 0.730361
1998 1 0.373243 0.208187 0.998369
1876 1 0.428484 0.133046 0.505463
1583 1 0.28435 0.969939 0.141024
1 1 0.11133 0.692384 0.169681
257 1 0.474252 0.517306 0.214651
1812 1 0.188619 0.550419 0.397729
1840 1 0.120618 0.5312 0.407507
1475 1 0.014793 0.710538 0.387275
241 1 0.369706 0.580112 0.443895
1390 1 0.442131 0.940541 0.353508
1260 1 0.430648 0.895525 0.405495
1989 1 0.0521733 0.704001 0.325936
1938 1 0.00188572 0.950775 0.12479
1918 1 0.296007 0.926138 0.251669
1358 1 0.321369 0.645361 0.148186
560 1 0.416465 0.62055 0.489749
923 1 0.2397 0.772302 0.287507
643 1 0.0676541 0.648882 0.0853607
1730 1 0.317158 0.834635 0.018635
510 1 0.0957548 0.751926 0.197014
786 1 0.246901 0.61881 0.346084
387 1 0.23939 0.841173 0.023109
200 1 0.136447 0.734362 0.0724232
1949 1 0.324233 0.591158 0.0610066
1370 1 0.221384 0.978643 0.266908
938 1 0.0621497 0.963213 0.0731633
453 1 0.40611 0.678062 0.0184595
29 1 0.458263 0.522265 0.330973
1477 1 0.0573703 0.587265 0.0408045
667 1 0.168148 0.678595 0.257773
1424 1 0.293318 0.806778 0.355248
810 1 0.298659 0.932731 0.328812
1124 1 0.11288 0.907494 0.0815192
1445 1 0.0337445 0.565128 0.310826
1893 1 0.263435 0.727879 0.085612
1254 1 0.234859 0.64651 0.461651
1539 1 0.36273 0.87484 0.391484
831 1 0.214996 0.992027 0.0689941
1405 1 0.0334557 0.783934 0.226944
130 1 0.492112 0.772891 0.308018
614 1 0.317404 0.536725 0.259361
21 1 0.00139452 0.97733 0.497321
1122 1 0.48111 0.528561 0.474829
937 1 0.363261 0.70274 0.213039
688 1 0.0593065 0.829641 0.173744
1483 1 0.481232 0.601857 0.331822
1177 1 0.00299747 0.732005 0.11223
1796 1 0.440791 0.947817 0.202757
1175 1 0.108058 0.864197 0.213936
541 1 0.41785 0.811159 0.465524
1845 1 0.0771764 0.925212 0.157962
54 1 0.18999 0.829641 0.204314
823 1 0.0874363 0.674719 0.463936
929 1 0.130612 0.538958 0.0804203
1660 1 0.0151747 0.703735 0.257231
1538 1 0.0952768 0.601895 0.331832
785 1 0.412645 0.80462 0.385921
124 1 0.265375 0.908326 0.478032
1924 1 0.0688773 0.655526 0.276097
960 1 0.0229542 0.919185 0.029633
1654 1 0.0745916 0.569188 0.195582
1468 1 0.380009 0.52005 0.0219924
1926 1 0.309757 0.597433 0.465325
1312 1 0.388569 0.786939 0.158041
314 1 0.46941 0.826639 0.419774
2005 1 0.0536323 0.648762 0.164798
484 1 0.171849 0.864679 0.0475387
240 1 0.36309 0.741908 0.397241
1147 1 0.451586 0.824339 0.140249
1287 1 0.450225 0.909909 0.0271182
815 1 0.0167486 0.714641 0.179328
404 1 0.240864 0.863577 0.155497
1202 1 0.060776 0.945868 0.328086
762 1 0.186932 0.919178 0.329208
961 1 0.249227 0.950712 0.376543
41 1 0.339976 1.00239 0.115357
1619 1 0.299604 0.716027 0.24343
468 1 0.290748 0.876911 0.369915
1854 1 0.396786 0.689348 0.14248
897 1 0.311714 0.987472 0.214853
333 1 0.399949 0.831775 0.0365383
799 1 0.0452911 0.7046 0.05019
1716 1 0.173785 0.798966 0.0212644
1247 1 0.357455 0.618188 0.315559
1051 1 0.0417578 0.549706 0.121012
1740 1 0.324979 0.776985 0.192471
1711 1 0.344357 0.835351 0.125207
209 1 0.450907 0.960902 0.48204
1947 1 0.219695 0.661259 0.190588
378 1 0.138217 0.878565 0.146075
153 1 0.324633 0.721225 0.134087
611 1 0.411643 0.601817 0.351862
1543 1 0.144127 0.983529 0.144891
1054 1 0.270837 0.546366 0.0816774
598 1 0.0511396 0.800013 0.0551941
283 1 0.401714 0.818959 0.29852
1357 1 0.309471 0.650547 0.22648
1871 1 0.189285 0.517224 0.115417
2045 1 0.153158 0.569936 0.457216
706 1 0.0949947 0.528514 0.33022
944 1 0.0349065 0.86905 0.0929299
1396 1 0.24686 0.787452 0.221043
132 1 0.114604 0.901992 0.294883
467 1 0.0978381 0.74026 0.269556
749 1 0.172884 0.5746 0.322933
860 1 0.259932 0.589995 0.0194662
948 1 0.0595584 0.928137 0.258444
244 1 0.0329258 0.513265 0.365457
446 1 0.0691098 0.771875 0.133282
513 1 0.24447 0.698391 0.302754
1028 1 0.110215 0.784604 0.440215
1738 1 0.278283 0.71641 0.448954
641 1 0.374448 0.988604 0.326458
804 1 0.0545167 0.531942 0.251929
1699 1 0.450346 0.746269 0.172292
1137 1 0.0528617 0.873717 0.333008
1457 1 0.146472 0.647347 0.0792795
1420 1 0.205844 0.786595 0.0933077
1294 1 0.182519 0.91641 0.102243
512 1 0.333716 0.680891 0.0285074
1943 1 0.327195 0.877334 0.202219
1265 1 0.126776 0.692825 0.391741
1367 1 0.239412 0.901322 0.218611
675 1 0.363856 0.654417 0.0904275
1869 1 0.0979973 0.876063 0.405932
42 1 0.00247321 0.518787 0.200228
1066 1 0.090494 0.913806 0.483601
535 1 0.163182 0.772607 0.245435
1110 1 0.362593 0.535734 0.313949
655 1 0.245855 0.885793 0.0888907
1076 1 0.487131 0.849721 0.29078
2021 1 0.130821 0.577515 0.267134
201 1 0.276559 0.796751 0.0991867
1919 1 0.439122 0.910706 0.263384
1684 1 0.445613 0.865056 0.0794029
1105 1 0.110017 0.639482 0.220319
1892 1 0.181236 0.689523 0.135452
676 1 0.2583 0.77932 0.417224
2007 1 0.440748 0.685149 0.465889
1039 1 0.494865 0.694072 0.422293
1252 1 0.436105 0.734258 0.349511
1925 1 0.174032 0.859336 0.27672
1984 1 0.199435 0.587513 0.120666
989 1 0.384422 0.686705 0.353411
1701 1 0.324436 0.739535 0.327036
1523 1 0.492421 0.909539 0.166265
1264 1 0.401722 0.519544 0.448363
1877 1 0.103023 0.774615 0.350407
1435 1 0.021756 0.977437 0.191455
281 1 0.110343 0.812567 0.274271
691 1 0.372272 0.562775 0.104974
322 1 0.0120246 0.506536 0.434443
237 1 0.471572 0.760203 0.447528
1945 1 0.169864 0.937159 0.231867
664 1 0.382613 0.867194 0.24826
671 1 0.50097 0.851393 0.213289
1362 1 0.371065 0.932479 0.097995
1629 1 0.150261 0.526463 0.194751
996 1 0.214491 0.945133 0.4413
182 1 0.355697 0.685837 0.283113
1212 1 0.320513 0.887242 0.0785967
798 1 0.123686 0.598858 0.14132
384 1 0.445793 0.608375 0.265898
461 1 0.429539 0.709601 0.270145
1572 1 0.247107 0.557521 0.179678
657 1 0.450168 0.665698 0.182895
255 1 0.363747 0.53274 0.386004
1111 1 0.136522 0.620084 0.39429
1787 1 0.274998 0.538136 0.380046
1048 1 0.201583 0.560237 0.0525242
1123 1 0.158597 0.833723 0.450515
1462 1 0.169976 0.669798 0.455303
418 1 0.381911 0.947131 0.242736
505 1 0.212173 0.862953 0.365655
332 1 0.370011 0.715982 0.465368
548 1 0.325036 0.866501 0.451946
3 1 0.4343 0.976952 0.00048072
1011 1 0.115307 0.956883 0.40874
1679 1 0.256298 0.842645 0.458079
435 1 0.0232419 0.585131 0.421346
392 1 0.0251722 0.643794 0.469653
1188 1 0.474675 0.572625 0.0714176
1291 1 0.028236 0.848726 0.474588
1835 1 0.392163 0.631757 0.217468
1806 1 0.149631 0.982995 0.480175
148 1 0.148009 0.809242 0.149395
1169 1 0.334505 0.655729 0.422526
543 1 0.410481 0.496156 0.17405
450 1 0.0632635 0.646978 0.404353
1902 1 0.422416 0.809689 0.22375
1038 1 0.453103 0.710538 0.0567385
816 1 0.376265 0.76043 0.25734
1999 1 0.31115 0.601386 0.371477
781 1 0.201953 0.621832 0.407084
2047 1 0.253772 0.840944 0.282384
1950 1 0.299963 0.946844 0.423116
1816 1 0.0645055 0.795339 0.496003
1671 1 0.178419 0.602268 0.208852
428 1 0.317152 0.865573 0.28933
1832 1 0.257859 0.739488 0.162255
14 1 0.373217 0.949451 0.395873
737 1 0.357933 0.945769 0.178352
1577 1 0.456004 0.665474 0.333569
288 1 0.0307763 0.634481 0.336147
782 1 0.0394673 0.795206 0.387148
911 1 0.193799 0.770143 0.386798
1156 1 0.224962 0.541777 0.460572
1595 1 0.139608 0.857011 0.345098
1983 1 0.148021 0.972243 0.0650175
39 1 0.205129 0.621592 0.280899
817 1 0.448642 0.65619 0.102774
1228 1 0.457977 0.561591 0.413794
800 1 0.403245 0.875496 0.170951
261 1 0.461826 0.977189 0.14001
108 1 0.470346 0.646573 0.0219818
221 1 0.145902 0.652818 0.323535
337 1 0.445963 0.76363 0.103419
396 1 0.0461432 0.744648 0.445319
165 1 0.117713 0.823967 0.0731292
951 1 0.485921 0.598109 0.192529
1875 1 0.325085 0.773039 0.453107
106 1 0.477029 0.957709 0.0728146
1634 1 0.198369 0.70395 0.0626377
604 1 0.129025 0.971541 0.319912
367 1 0.27583 0.56836 0.309223
107 1 0.324201 0.584078 0.199125
677 1 0.285512 0.977092 0.0460096
1506 1 0.409433 0.590227 0.16786
15 1 0.386985 0.551796 0.233141
1560 1 0.366628 0.927212 0.0250106
1677 1 0.43839 0.638807 0.40875
415 1 0.346418 0.528903 0.15996
134 1 0.176956 0.734047 0.304768
855 1 0.471582 0.752524 0.233768
1238 1 0.442025 0.853089 0.347001
381 1 0.308117 0.671645 0.35851
1758 1 0.166892 0.901635 0.418722
1661 1 0.353321 0.787789 0.0693246
1844 1 0.456748 0.544447 0.135147
1542 1 0.101956 0.971105 0.211448
1436 1 0.214029 0.745159 0.468518
527 1 0.374777 0.917673 0.324514
633 1 0.0410766 0.866684 0.231973
361 1 0.256114 0.646434 0.0692269
1524 1 0.422124 0.886426 0.487006
1541 1 0.411733 0.599894 0.0237758
149 1 0.230195 0.538855 0.250279
1375 1 0.284615 0.988439 0.493845
792 1 0.043124 0.792974 0.30814
424 1 0.0121562 0.887742 0.168933
141 1 0.254814 0.603176 0.230903
139 1 0.377384 0.983481 0.488106
236 1 0.115948 0.624017 0.0173389
438 1 0.18786 0.499739 0.350642
567 1 0.0721654 0.99676 0.14291
405 1 0.0690107 0.581944 0.499636
1043 1 0.0138709 0.934389 0.405981
125 1 0.0747658 0.982492 0.462745
950 1 0.106552 0.515536 0.482385
934 1 0.07234 0.869919 0.0150467
1393 1 0.189057 0.889644 0.495931
6 1 0.294128 0.747975 0.60724
358 1 0.279195 0.566038 0.912302
710 1 0.456472 0.561487 0.529299
1691 1 0.442652 0.670087 0.669401
1101 1 0.219258 0.652337 0.591825
1452 1 0.410922 0.870698 0.576731
1649 1 0.168306 0.749065 0.879486
957 1 0.169066 0.973044 0.584197
871 1 0.309401 0.524772 0.851726
793 1 0.09119 0.544186 0.90245
707 1 0.28818 0.922873 0.640849
882 1 0.064623 0.863985 0.569657
1191 1 0.102942 0.750625 0.923192
1036 1 0.132706 0.946955 0.785314
1466 1 0.230845 0.903203 0.574212
218 1 0.337171 0.689006 0.65679
1603 1 0.178538 0.675692 0.915135
1820 1 0.424205 0.674877 0.948058
877 1 0.203154 0.811411 0.509298
1910 1 0.0793689 0.899783 0.793715
502 1 0.459366 0.645508 0.736638
2037 1 0.125936 0.593047 0.705331
1383 1 0.208008 0.984652 0.52649
1281 1 0.248168 0.518345 0.739994
1439 1 0.491902 0.931233 0.662406
681 1 0.501336 0.711848 0.519671
152 1 0.416232 0.514879 0.583294
75 1 0.229699 0.600628 0.662512
861 1 0.405681 0.792851 0.557909
1551 1 0.133588 0.580442 0.571074
430 1 0.375491 0.853323 0.842602
1986 1 0.0407975 0.976394 0.983602
1221 1 0.0101642 0.890438 0.93591
72 1 0.484516 0.722559 0.739205
524 1 0.0992881 0.976623 0.562227
1261 1 0.0708551 0.77287 0.654291
509 1 0.232666 0.801365 0.573252
571 1 0.102415 0.714768 0.580039
311 1 0.373803 0.784658 0.628953
523 1 0.477903 0.534515 0.684391
1096 1 0.189192 0.667777 0.678189
788 1 0.00502203 0.570147 0.513446
1558 1 0.177404 0.707368 0.518187
1042 1 0.353176 0.738705 0.988355
1282 1 0.00524854 0.621844 0.631232
955 1 0.498576 0.618341 0.886421
18 1 0.38523 0.770903 0.703719
949 1 0.0435481 0.931126 0.596861
1934 1 0.313614 0.852444 0.751493
916 1 0.276835 0.703713 0.995488
1013 1 0.270899 0.854946 0.526168
1313 1 0.446288 0.719811 0.586134
879 1 0.278077 0.97461 0.584168
1292 1 0.383128 0.587604 0.793919
864 1 0.353867 0.91889 0.842681
1371 1 0.309732 0.779239 0.531169
555 1 0.349528 0.556665 0.504317
1091 1 0.0199864 0.907356 0.522295
1958 1 0.457831 0.912738 0.812062
1320 1 0.358195 0.552573 0.697914
216 1 0.297528 0.626235 0.622156
1890 1 0.182624 0.714046 0.610154
59 1 0.49823 0.644683 0.79895
1966 1 0.0493324 0.538382 0.985865
1710 1 0.346632 0.758821 0.785131
1719 1 0.102439 0.947146 0.95395
547 1 0.260787 0.94093 0.976835
1164 1 0.270111 0.535833 0.517121
1494 1 0.275427 0.788379 0.969852
317 1 0.241176 0.570064 0.836664
1029 1 0.191873 0.599716 0.907824
354 1 0.235504 0.807203 0.771388
1689 1 0.256587 0.649789 0.946011
456 1 0.431658 0.97311 0.923153
1903 1 0.0173576 0.630963 0.9976
1923 1 0.490316 0.58924 0.964462
921 1 0.122531 0.851006 0.762353
1176 1 0.496898 0.810161 0.837926
532 1 0.0559097 0.527206 0.55864
1765 1 0.315922 0.74405 0.706888
2026 1 0.0494468 0.742787 0.751083
1971 1 0.465078 0.646548 0.571786
1635 1 0.204085 0.564534 0.973165
969 1 0.333959 0.94369 0.770842
660 1 0.38206 0.544278 0.86867
1889 1 0.42692 0.963483 0.850387
76 1 0.38132 0.645659 0.609001
231 1 0.200697 0.945858 0.827939
1628 1 0.23324 0.725798 0.663519
242 1 0.115596 0.846629 0.665766
204 1 0.0390389 0.823334 0.619877
1698 1 0.13444 0.809704 0.949022
302 1 0.104505 0.793597 0.718123
1563 1 0.321562 0.62326 0.990475
1567 1 0.0386188 0.536194 0.643436
932 1 0.253373 0.853904 0.631448
1864 1 0.419714 0.718701 0.888091
400 1 0.214587 0.879517 0.698725
1905 1 0.0306363 0.80728 0.696461
1128 1 0.00719871 0.728406 0.958476
374 1 0.467288 0.82629 0.986983
933 1 0.0239808 0.918243 0.864351
360 1 0.068454 0.563761 0.839217
1727 1 0.284069 0.751918 0.853537
760 1 0.160419 0.627008 0.511259
1159 1 0.0720664 0.64921 0.715221
13 1 0.215438 0.510126 0.890603
465 1 0.359554 0.967783 0.962959
766 1 0.0474809 0.977469 0.650196
1979 1 0.0961455 0.916307 0.872664
651 1 0.0290497 0.683109 0.802813
975 1 0.345938 0.622305 0.672259
1917 1 0.372119 0.577919 0.577251
270 1 0.139356 0.770769 0.624533
1985 1 0.416447 0.599827 0.703418
653 1 0.221694 0.604403 0.735635
1207 1 0.309261 0.934245 0.531261
315 1 0.441132 0.595624 0.626676
832 1 0.313299 0.708236 0.93094
847 1 0.290785 0.564662 0.668603
339 1 0.12339 0.96598 0.667553
809 1 0.14782 0.915593 0.71472
595 1 0.388083 0.838687 0.73291
1447 1 0.131767 0.692102 0.85951