ITEM: TIMESTEP
100000
ITEM: NUMBER OF ATOMS
2048
ITEM: BOX BOUNDS pp pp pp
0.0000000000000000e+00 1.1635780856594225e+01
0.0000000000000000e+00 1.1635780856594225e+01
0.0000000000000000e+00 1.1635780856594225e+01
ITEM: ATOMS id type xs ys zs
20 1 0.00769179 0.187414 0.0650049
8 1 0.129523 0.064734 0.0585774
12 1 0.255313 0.057341 0.0670152
1172 1 0.4963 0.180552 0.318492
587 1 0.312299 0.498797 0.178562
19 1 0.0669613 0.121556 0.0626685
16 1 0.380353 0.0593599 0.061801
24 1 0.1263 0.183304 0.0574194
27 1 0.315281 0.125862 0.059778
31 1 0.435974 0.120536 0.0608985
195 1 0.0570736 0.00136658 0.435723
28 1 0.254458 0.187836 0.0600168
282 1 0.310123 0.197674 0.492175
32 1 0.372339 0.190623 0.0654091
39 1 0.193452 0.253413 0.06788
100 1 0.000389151 0.313748 0.186464
43 1 0.312016 0.253863 0.0571636
47 1 0.432288 0.245587 0.0573091
1153 1 0.497436 0.00557607 0.257601
40 1 0.122036 0.315794 0.0587069
199 1 0.186215 0.00398807 0.43485
48 1 0.376913 0.306759 0.0516485
22 1 0.187304 0.188035 0.000525202
591 1 0.434558 0.494305 0.194304
55 1 0.186447 0.376612 0.0647369
59 1 0.303498 0.377603 0.0583212
145 1 0.0036497 0.121458 0.255311
64 1 0.374029 0.430174 0.0596206
225 1 0.00275415 0.248923 0.375994
197 1 0.111997 0.0035571 0.371686
50 1 0.0689239 0.433758 0.00296334
66 1 0.0632635 0.0541683 0.123648
85 1 0.128979 0.125445 0.120663
89 1 0.256288 0.129317 0.120774
78 1 0.435896 0.0595312 0.123829
82 1 0.0732293 0.190157 0.124581
23 1 0.187876 0.122242 0.0562648
93 1 0.376803 0.11959 0.117858
94 1 0.433934 0.189911 0.119546
35 1 0.0655204 0.256891 0.0669023
86 1 0.187986 0.186604 0.11292
90 1 0.318708 0.185067 0.125471
109 1 0.374384 0.250563 0.130046
98 1 0.0588765 0.315039 0.128395
101 1 0.126542 0.256244 0.120435
105 1 0.256937 0.244238 0.130141
51 1 0.0657636 0.376599 0.0649722
44 1 0.246264 0.32028 0.0581487
106 1 0.320213 0.314407 0.109688
110 1 0.432918 0.31093 0.11948
60 1 0.244714 0.439824 0.0628574
121 1 0.252968 0.372642 0.125106
125 1 0.377622 0.372685 0.121032
63 1 0.450059 0.380779 0.0647689
306 1 0.0616645 0.439184 0.492387
56 1 0.128158 0.437162 0.0714275
122 1 0.314753 0.428796 0.127525
126 1 0.434902 0.433603 0.136043
135 1 0.179563 -0.000428739 0.310356
70 1 0.187448 0.0612733 0.121895
74 1 0.317701 0.0557784 0.122408
87 1 0.190123 0.127941 0.186958
91 1 0.31919 0.123 0.182498
80 1 0.370465 0.0578646 0.187822
83 1 0.0738377 0.116318 0.177979
99 1 0.0653191 0.251492 0.179102
88 1 0.128854 0.184861 0.187758
111 1 0.441549 0.247293 0.182408
1105 1 0.497549 0.114376 0.125832
103 1 0.180094 0.252254 0.183778
115 1 0.0611577 0.380385 0.19071
102 1 0.186547 0.325035 0.125522
108 1 0.24951 0.311907 0.188227
123 1 0.309282 0.37692 0.192761
117 1 0.1206 0.376512 0.130274
118 1 0.192451 0.432132 0.12912
127 1 0.44055 0.370504 0.194362
1092 1 0.494975 0.0638876 0.186052
114 1 0.0579843 0.443583 0.125035
148 1 0.00229556 0.183367 0.322143
124 1 0.248961 0.431905 0.188342
228 1 0.00171908 0.313505 0.435714
579 1 0.0551904 0.495824 0.190381
129 1 0.00566681 0.00152106 0.244146
244 1 0.00233649 0.443807 0.438696
248 1 0.1278 0.435079 0.435436
72 1 0.125155 0.0484147 0.184034
76 1 0.254809 0.0505894 0.179189
157 1 0.36776 0.124593 0.245124
142 1 0.429488 0.0675104 0.254128
149 1 0.121308 0.123231 0.248772
96 1 0.376049 0.185095 0.182467
95 1 0.433273 0.121399 0.180155
713 1 0.247852 0.499177 0.37642
165 1 0.122232 0.25334 0.244257
150 1 0.19435 0.180986 0.25416
92 1 0.245683 0.191607 0.19181
107 1 0.312525 0.246528 0.191016
173 1 0.375362 0.241695 0.244087
158 1 0.435955 0.179342 0.253303
104 1 0.125757 0.315161 0.181835
166 1 0.1817 0.318139 0.245834
169 1 0.246386 0.250462 0.252888
174 1 0.435712 0.297828 0.24284
34 1 0.0631819 0.311593 6.34677e-05
719 1 0.436907 0.491709 0.426372
119 1 0.183959 0.375619 0.190018
112 1 0.369344 0.312902 0.179951
161 1 0.00311564 0.24925 0.250117
181 1 0.12071 0.378601 0.253159
120 1 0.121351 0.43835 0.197334
128 1 0.370868 0.431682 0.194381
1121 1 0.498494 0.249546 0.124966
37 1 0.130213 0.248952 0.004986
81 1 0.00368802 0.125215 0.118847
130 1 0.0647423 0.0660923 0.254392
134 1 0.188127 0.0653454 0.244508
140 1 0.248133 0.061479 0.301359
138 1 0.310636 0.0608168 0.24808
314 1 0.309942 0.436257 0.49927
205 1 0.364181 0.0107347 0.385321
61 1 0.364454 0.373382 -0.000951376
153 1 0.256114 0.123767 0.244223
146 1 0.0639707 0.191026 0.242834
152 1 0.127626 0.186648 0.300337
156 1 0.251298 0.185201 0.320049
154 1 0.309129 0.189173 0.24744
160 1 0.37368 0.184191 0.305081
163 1 0.0669681 0.248586 0.319826
171 1 0.307088 0.253087 0.314141
589 1 0.379653 0.492195 0.125631
139 1 0.303583 -9.69401e-07 0.311095
168 1 0.12561 0.322364 0.318534
167 1 0.179814 0.255883 0.310454
170 1 0.302085 0.308597 0.251099
179 1 0.061491 0.375411 0.312102
162 1 0.0657659 0.312104 0.25525
183 1 0.184873 0.384453 0.31453
189 1 0.373474 0.365449 0.247076
176 1 0.369957 0.299035 0.304971
1044 1 0.495086 0.18616 0.0610483
185 1 0.243982 0.370175 0.245859
191 1 0.439061 0.364647 0.30293
281 1 0.243735 0.130333 0.500012
49 1 0.00509285 0.377403 0.000535565
178 1 0.0591331 0.442863 0.254816
18 1 0.0693542 0.184978 0.001664
182 1 0.182597 0.441336 0.253695
186 1 0.307436 0.436323 0.247131
190 1 0.437484 0.429539 0.249011
243 1 0.0541191 0.376358 0.435764
136 1 0.123354 0.0682435 0.313705
84 1 0.00990463 0.178321 0.181927
313 1 0.246013 0.377235 0.499576
241 1 0.00397899 0.372436 0.368473
143 1 0.42762 7.16374e-05 0.316486
147 1 0.0658305 0.128106 0.309748
155 1 0.309663 0.118951 0.30844
144 1 0.368407 0.0657356 0.312761
1665 1 0.496059 0.497041 0.249279
261 1 0.115832 0.00787002 0.491143
151 1 0.186555 0.120263 0.311925
221 1 0.368536 0.127759 0.371088
159 1 0.433417 0.121807 0.316157
229 1 0.127603 0.254519 0.37591
218 1 0.316108 0.194623 0.371096
68 1 0.00289624 0.066251 0.187895
226 1 0.0663883 0.31193 0.377424
230 1 0.187756 0.324654 0.37316
233 1 0.244239 0.255281 0.371682
234 1 0.305722 0.314559 0.372395
175 1 0.432561 0.2453 0.314626
245 1 0.119822 0.379219 0.377107
172 1 0.246261 0.318592 0.314284
253 1 0.383321 0.365339 0.360478
238 1 0.447769 0.313504 0.370686
252 1 0.254339 0.441864 0.43605
184 1 0.119197 0.439019 0.31129
187 1 0.308342 0.378192 0.317199
254 1 0.433225 0.435738 0.358872
255 1 0.436939 0.382046 0.440697
188 1 0.253591 0.447793 0.30928
250 1 0.310309 0.442196 0.373003
192 1 0.374465 0.430351 0.30249
318 1 0.438769 0.449446 0.496003
717 1 0.369548 0.50033 0.375778
198 1 0.185109 0.0640688 0.375418
206 1 0.426572 0.0649056 0.37836
194 1 0.0630058 0.0744223 0.375602
213 1 0.128081 0.128651 0.3769
217 1 0.251014 0.130803 0.382852
202 1 0.303074 0.0618411 0.383188
208 1 0.366112 0.0692126 0.441395
223 1 0.431011 0.126141 0.43879
25 1 0.253273 0.126677 0.00593764
210 1 0.0642486 0.190598 0.377245
214 1 0.185081 0.198371 0.366694
219 1 0.31224 0.132326 0.438557
224 1 0.377599 0.189398 0.439207
222 1 0.432865 0.193866 0.377244
97 1 0.0019264 0.252588 0.121912
220 1 0.248239 0.191795 0.434547
237 1 0.374919 0.253723 0.382926
232 1 0.121733 0.315218 0.443189
235 1 0.299606 0.254878 0.427422
239 1 0.44048 0.254931 0.435433
527 1 0.437014 0.49128 0.0525833
240 1 0.370388 0.314695 0.433402
242 1 0.0620533 0.439657 0.374576
246 1 0.179418 0.440623 0.372577
249 1 0.246969 0.38247 0.376638
256 1 0.370181 0.437583 0.429225
251 1 0.310445 0.375147 0.442308
247 1 0.186294 0.374098 0.436763
1236 1 0.491669 0.189229 0.445172
1108 1 0.49535 0.178818 0.185266
200 1 0.121092 0.0665572 0.434399
204 1 0.242378 0.0679601 0.439342
36 1 0.0034803 0.312984 0.0659862
236 1 0.250772 0.320548 0.435634
525 1 0.365505 0.497851 0.00634821
215 1 0.187512 0.132049 0.441068
523 1 0.317653 0.493253 0.072512
298 1 0.309117 0.306541 0.496397
211 1 0.0590475 0.13506 0.440575
79 1 0.43755 0.00251336 0.183273
1220 1 0.492927 0.0561213 0.436242
227 1 0.0703885 0.249971 0.444289
216 1 0.128501 0.195681 0.433579
231 1 0.193126 0.254016 0.439388
1233 1 0.490424 0.12949 0.383759
258 1 0.056191 0.0662895 0.49496
521 1 0.243969 0.498741 0.00247412
1185 1 0.494819 0.240701 0.249037
131 1 0.0561262 5.92386e-05 0.309912
1156 1 0.491789 0.0588503 0.326411
1329 1 0.495781 0.378117 0.500273
1028 1 0.495565 0.0583735 0.0675452
26 1 0.31597 0.186203 0.00133952
715 1 0.315978 0.49692 0.439385
585 1 0.251069 0.499514 0.126638
269 1 0.364116 0.0028965 0.493656
301 1 0.38028 0.248393 0.496343
277 1 0.118835 0.132058 0.498035
270 1 0.43107 0.0663914 0.498584
581 1 0.120986 0.496679 0.132346
265 1 0.241261 -0.00102489 0.49849
10 1 0.316422 0.0600621 0.000567861
1060 1 0.498765 0.311587 0.0636099
164 1 0.00297672 0.311196 0.310848
709 1 0.122116 0.50007 0.371975
177 1 0.00431676 0.379191 0.254143
1313 1 0.495269 0.255389 0.494088
33 1 0.00214972 0.250149 0.00942714
17 1 0.00565785 0.133986 0.00337064
14 1 0.441555 0.057397 0.00320541
1297 1 0.494212 0.125091 0.498775
262 1 0.182622 0.0651833 0.49837
317 1 0.374117 0.378371 0.495757
302 1 0.433654 0.31568 0.495723
29 1 0.377818 0.118687 0.0042543
294 1 0.188621 0.319555 0.49816
46 1 0.436838 0.313474 0.0029301
264 1 0.127772 0.063231 0.563325
395 1 0.311384 0.00458157 0.820527
263 1 0.191738 0.00646751 0.559279
275 1 0.0600815 0.128119 0.557555
1041 1 0.497496 0.122066 0.998497
436 1 0.000983514 0.438766 0.811246
1537 1 0.49412 0.488784 0.994638
284 1 0.250934 0.200973 0.567833
45 1 0.379083 0.24416 0.993748
283 1 0.303723 0.13697 0.555827
288 1 0.373348 0.18943 0.562201
280 1 0.122333 0.191054 0.569806
295 1 0.181828 0.258316 0.567005
299 1 0.314675 0.254891 0.557157
303 1 0.441153 0.248169 0.558769
1377 1 0.495392 0.245467 0.618715
452 1 0.000693962 0.0641863 0.930471
393 1 0.255815 -0.000892707 0.749703
356 1 0.00144451 0.304233 0.687697
274 1 0.0515109 0.186489 0.505698
329 1 0.25968 0.00982997 0.616631
457 1 0.253965 0.00609182 0.878907
1476 1 0.493888 0.0615478 0.937579
300 1 0.252914 0.313261 0.558027
309 1 0.119671 0.375057 0.503097
304 1 0.376085 0.312258 0.563552
388 1 0.0071339 0.0619278 0.806011
311 1 0.190187 0.383568 0.567408
315 1 0.311951 0.374882 0.5535
319 1 0.442722 0.374954 0.567713
397 1 0.373065 0.00161524 0.750281
451 1 0.0617337 0.00247156 0.929825
316 1 0.254909 0.434698 0.564087
1425 1 0.497379 0.124339 0.750237
259 1 0.0607011 0.00214756 0.558363
326 1 0.187227 0.0647664 0.627839
268 1 0.245099 0.0676838 0.558546
272 1 0.375135 0.0534923 0.563931
334 1 0.441216 0.0573595 0.620912
341 1 0.125184 0.119697 0.63166
279 1 0.186468 0.133603 0.567914
330 1 0.316487 0.068907 0.621261
287 1 0.435096 0.120174 0.562358
338 1 0.0613172 0.187818 0.628777
342 1 0.186725 0.188702 0.626678
349 1 0.372962 0.131148 0.623365
1985 1 0.493478 0.499295 0.870086
291 1 0.0549978 0.246816 0.560235
357 1 0.125203 0.249901 0.627018
361 1 0.241518 0.253405 0.635703
346 1 0.308451 0.190451 0.629515
365 1 0.373736 0.251 0.621944
350 1 0.436588 0.188244 0.621794
362 1 0.313672 0.310356 0.618979
366 1 0.437361 0.308333 0.624008
1332 1 0.492481 0.433415 0.56121
296 1 0.118686 0.311499 0.556892
358 1 0.181613 0.31438 0.625879
1284 1 0.49527 0.0649585 0.559837
307 1 0.050452 0.375465 0.566706
377 1 0.252393 0.373422 0.628544
320 1 0.374078 0.440082 0.553973
312 1 0.124221 0.435641 0.567313
54 1 0.181258 0.435354 0.996869
378 1 0.313824 0.438115 0.620403
325 1 0.120152 0.00428798 0.624135
387 1 0.0635574 0.000557919 0.813797
322 1 0.0615506 0.0679701 0.625537
328 1 0.125993 0.0611777 0.688001
484 1 0.00714446 0.308686 0.941863
336 1 0.378569 0.062626 0.674319
512 1 0.368553 0.441348 0.94457
339 1 0.0668755 0.12625 0.683564
343 1 0.18653 0.135945 0.689735
332 1 0.257118 0.0555785 0.688605
351 1 0.439755 0.125987 0.682296
344 1 0.122088 0.195596 0.685351
345 1 0.254063 0.124496 0.631947
347 1 0.315247 0.123034 0.685927
359 1 0.182421 0.256869 0.69032
363 1 0.314626 0.252731 0.68456
352 1 0.375361 0.194695 0.683215
367 1 0.436202 0.250663 0.684569
905 1 0.249555 0.49354 0.744853
355 1 0.0591209 0.247138 0.690039
360 1 0.122246 0.311691 0.685127
368 1 0.378405 0.313385 0.690161
354 1 0.0697411 0.317788 0.621252
373 1 0.120848 0.382703 0.627594
364 1 0.256547 0.315923 0.689694
381 1 0.367575 0.376559 0.612893
383 1 0.438116 0.370317 0.691126
374 1 0.194112 0.442767 0.622512
380 1 0.248557 0.436038 0.685992
382 1 0.441009 0.43898 0.62925
53 1 0.126462 0.368231 0.994993
370 1 0.0598903 0.434134 0.627451
1524 1 0.494218 0.434667 0.933496
487 1 0.186559 0.249947 0.943042
386 1 0.065309 0.0557329 0.751627
390 1 0.192165 0.061145 0.733705
394 1 0.315359 0.0573731 0.75459
398 1 0.434741 0.0621975 0.750316
417 1 0.00203351 0.249712 0.753545
449 1 0.00257851 0.00649042 0.873666
405 1 0.118252 0.127534 0.745196
409 1 0.250965 0.118581 0.745115
413 1 0.37297 0.122248 0.747167
414 1 0.435903 0.182824 0.738853
402 1 0.0634006 0.190376 0.757094
421 1 0.126479 0.249226 0.754762
348 1 0.257485 0.184011 0.689595
410 1 0.317019 0.184784 0.744939
418 1 0.0633023 0.311315 0.748391
425 1 0.254862 0.252325 0.751094
430 1 0.443005 0.307044 0.75187
278 1 0.188251 0.190593 0.500722
371 1 0.0609279 0.373049 0.688999
375 1 0.184097 0.380006 0.685681
441 1 0.241853 0.375476 0.750156
379 1 0.310751 0.383145 0.688532
445 1 0.375195 0.369913 0.748859
845 1 0.375669 0.493309 0.625558
376 1 0.126554 0.446849 0.685953
57 1 0.242861 0.381608 0.993353
442 1 0.318428 0.443585 0.747549
384 1 0.38127 0.434649 0.686375
504 1 0.124534 0.44191 0.937407
392 1 0.12471 0.0698294 0.808816
396 1 0.249357 0.06019 0.815824
403 1 0.0629782 0.128401 0.810775
407 1 0.189135 0.123864 0.81726
62 1 0.438329 0.429193 0.991727
406 1 0.186963 0.180405 0.758733
411 1 0.317861 0.116413 0.816449
429 1 0.376403 0.255316 0.752875
327 1 0.182262 0.00377876 0.680413
431 1 0.437626 0.246296 0.812569
419 1 0.0598921 0.248531 0.818912
422 1 0.187279 0.306094 0.756348
426 1 0.31512 0.310027 0.752972
432 1 0.373322 0.315579 0.816716
324 1 0.00501555 0.0698191 0.69337
1300 1 0.4984 0.176089 0.564711
420 1 -0.00121967 0.324593 0.808861
437 1 0.125206 0.376006 0.743907
444 1 0.244183 0.436385 0.810399
443 1 0.307966 0.383107 0.815514
1057 1 0.498435 0.258111 0.999998
434 1 0.0633246 0.436991 0.747025
438 1 0.178992 0.440581 0.749396
492 1 0.248262 0.318672 0.936797
389 1 0.129467 0.00431161 0.755877
446 1 0.431692 0.443523 0.750279
841 1 0.25383 0.499324 0.619239
286 1 0.438019 0.185344 0.503429
454 1 0.1921 0.059336 0.875468
310 1 0.185818 0.439525 0.505045
400 1 0.378037 0.0599581 0.812619
462 1 0.436902 0.0622938 0.872781
21 1 0.125767 0.12365 0.994276
503 1 0.183749 0.369523 0.934157
450 1 0.062687 0.0636222 0.869411
469 1 0.132794 0.120676 0.879443
473 1 0.254277 0.120063 0.877236
466 1 0.0637236 0.183853 0.874155
470 1 0.196158 0.186997 0.870977
415 1 0.432225 0.12095 0.811856
1489 1 0.498327 0.122266 0.879273
408 1 0.130872 0.18479 0.825482
423 1 0.19011 0.24859 0.813738
489 1 0.256803 0.25019 0.867593
412 1 0.263442 0.186415 0.80938
427 1 0.317101 0.248162 0.810716
416 1 0.381612 0.183407 0.801245
482 1 0.0620681 0.307456 0.876187
485 1 0.126909 0.253281 0.876494
428 1 0.251186 0.316163 0.811714
493 1 0.375526 0.261963 0.884695
424 1 0.124995 0.31558 0.806912
439 1 0.184411 0.376976 0.812838
490 1 0.304932 0.311417 0.875777
494 1 0.437508 0.313774 0.869499
435 1 0.0649328 0.376549 0.802259
498 1 0.0601495 0.438033 0.877351
502 1 0.176939 0.432103 0.870849
505 1 0.244761 0.374571 0.873871
447 1 0.435192 0.384139 0.812373
266 1 0.308767 0.068471 0.506803
440 1 0.124344 0.448066 0.808827
290 1 0.0519997 0.317672 0.503978
448 1 0.368895 0.44378 0.810769
456 1 0.132822 0.0566171 0.934991
467 1 0.0643635 0.127111 0.937972
471 1 0.191071 0.11918 0.942463
460 1 0.251837 0.0545231 0.94569
458 1 0.314355 0.0615012 0.881998
464 1 0.377438 0.0664675 0.937087
479 1 0.437707 0.12014 0.940975
499 1 0.0599557 0.377591 0.931087
476 1 0.247746 0.180458 0.943085
475 1 0.321176 0.127191 0.942341
474 1 0.315553 0.18073 0.873243
477 1 0.380963 0.122463 0.880279
483 1 0.0612103 0.242021 0.941805
472 1 0.133052 0.183067 0.937168
480 1 0.379199 0.187254 0.936884
478 1 0.437774 0.188444 0.880022
285 1 0.369173 0.128053 0.503075
486 1 0.191879 0.308307 0.871287
491 1 0.309006 0.24825 0.934332
495 1 0.441634 0.251771 0.93838
1316 1 0.494631 0.311742 0.559397
501 1 0.117674 0.369288 0.871314
488 1 0.118816 0.304633 0.940024
507 1 0.30791 0.373712 0.933079
509 1 0.371317 0.382734 0.867168
511 1 0.430924 0.369256 0.935796
41 1 0.253313 0.243703 0.993642
293 1 0.12333 0.247168 0.511841
508 1 0.239883 0.444611 0.935929
506 1 0.305393 0.441516 0.873159
510 1 0.434167 0.435838 0.879973
496 1 0.367659 0.312726 0.944837
401 1 0.000148616 0.130028 0.750027
1393 1 0.500693 0.371271 0.629598
1412 1 0.495156 0.0572893 0.81431
783 1 0.437078 0.499996 0.560781
1428 1 0.498973 0.183547 0.812924
30 1 0.436377 0.183848 0.992839
42 1 0.303885 0.317917 0.997227
2 1 0.0613737 0.0628163 0.989719
38 1 0.188112 0.309103 0.997866
297 1 0.242523 0.253236 0.506917
6 1 0.188707 0.0586249 0.997749
58 1 0.303647 0.43608 0.997397
257 1 0.00144052 0.00424963 0.501283
517 1 0.1224 0.496854 0.999571
1809 1 0.495665 0.627452 0.493041
520 1 0.124349 0.564307 0.0665565
1556 1 0.500915 0.684511 0.0503711
1713 1 0.492893 0.875372 0.246049
528 1 0.36516 0.567234 0.0698867
645 1 0.118776 0.501767 0.246135
531 1 0.0626974 0.616514 0.065388
1764 1 0.500643 0.807054 0.433699
518 1 0.179263 0.565333 0.00202961
71 1 0.19153 0.995334 0.179538
543 1 0.438795 0.628743 0.0618829
1652 1 0.495919 0.941754 0.186996
535 1 0.186295 0.631926 0.0590251
133 1 0.120793 0.995741 0.252789
539 1 0.307837 0.629404 0.0592819
1636 1 0.495062 0.812258 0.18232
75 1 0.319627 0.997464 0.191415
1604 1 0.497128 0.560454 0.190793
802 1 0.0626379 0.818995 0.49791
536 1 0.125726 0.687261 0.064302
711 1 0.188456 0.508179 0.432201
540 1 0.247105 0.690828 0.053079
547 1 0.0673108 0.749373 0.0571122
551 1 0.190503 0.750339 0.0631431
534 1 0.180773 0.690848 0.000304824
1588 1 0.495379 0.936812 0.0675817
203 1 0.29946 0.99624 0.437818
643 1 0.0595538 0.509936 0.31108
552 1 0.134091 0.813552 0.0635138
583 1 0.180007 0.501983 0.185472
798 1 0.430374 0.68087 0.499511
137 1 0.245678 0.99225 0.240379
612 1 0.0031517 0.805369 0.179376
563 1 0.0698423 0.873733 0.0574995
568 1 0.127109 0.940096 0.0599252
1668 1 0.495877 0.550349 0.312647
526 1 0.424976 0.563567 0.00936355
519 1 0.186086 0.506742 0.0736954
516 1 0.00251777 0.553582 0.0648461
15 1 0.434157 0.993192 0.06022
1716 1 0.48337 0.935015 0.311862
522 1 0.300114 0.5611 0.00302199
751 1 0.43721 0.744773 0.443653
11 1 0.317764 0.994548 0.0575964
524 1 0.244784 0.56472 0.0673779
586 1 0.305013 0.559932 0.125836
1217 1 0.487651 0.995471 0.375354
597 1 0.127674 0.623622 0.119293
601 1 0.25153 0.627156 0.123926
1649 1 0.498193 0.876349 0.121742
594 1 0.0586172 0.681963 0.123391
598 1 0.187936 0.683333 0.120839
602 1 0.311554 0.690475 0.121944
621 1 0.375525 0.755433 0.120422
544 1 0.373832 0.696077 0.0576433
559 1 0.439171 0.751282 0.0546379
613 1 0.128228 0.746868 0.123442
555 1 0.312699 0.753565 0.05988
560 1 0.377584 0.812821 0.0592473
673 1 0.0087415 0.750082 0.2534
752 1 0.376067 0.813654 0.431779
610 1 0.0633955 0.810047 0.115311
614 1 0.196399 0.813224 0.118913
556 1 0.254588 0.809429 0.0587209
1780 1 0.494048 0.935865 0.436902
567 1 0.186622 0.876105 0.0577371
571 1 0.318707 0.87152 0.0520278
575 1 0.432972 0.875106 0.0566333
626 1 0.0698927 0.929777 0.121949
1633 1 0.493436 0.748383 0.113364
572 1 0.256501 0.93427 0.0609522
576 1 0.376294 0.93632 0.058246
647 1 0.179841 0.504457 0.312555
590 1 0.432532 0.570263 0.120473
578 1 0.0612953 0.559557 0.131148
582 1 0.194136 0.564084 0.130237
651 1 0.314716 0.505986 0.308512
599 1 0.183813 0.630969 0.183203
604 1 0.245945 0.690326 0.185884
605 1 0.371519 0.625921 0.124364
607 1 0.441581 0.621231 0.190539
600 1 0.120542 0.686128 0.184914
619 1 0.314616 0.748929 0.185067
608 1 0.37122 0.682513 0.179834
606 1 0.431386 0.692277 0.12201
611 1 0.0677586 0.744914 0.180462
617 1 0.256956 0.752523 0.124489
622 1 0.438191 0.815636 0.116399
629 1 0.132189 0.871465 0.121144
633 1 0.253287 0.87122 0.120089
618 1 0.316057 0.814272 0.129318
628 1 0.00360341 0.933329 0.17942
627 1 0.0610286 0.865749 0.179037
634 1 0.311977 0.927612 0.121001
637 1 0.375461 0.874262 0.11386
782 1 0.437396 0.558441 0.499761
724 1 0.00309519 0.692225 0.44925
630 1 0.193135 0.929239 0.119939
7 1 0.194197 1.00027 0.0559741
649 1 0.254489 0.50147 0.240334
638 1 0.433302 0.931444 0.122162
1572 1 0.496888 0.81736 0.058546
584 1 0.124918 0.571906 0.189515
748 1 0.239663 0.814712 0.437185
653 1 0.370812 0.503696 0.242018
592 1 0.375913 0.560608 0.185879
1601 1 0.494945 0.511303 0.122176
588 1 0.252545 0.562682 0.190607
595 1 0.0608897 0.627012 0.19119
603 1 0.314937 0.618171 0.184471
655 1 0.421477 0.501467 0.310325
658 1 0.0662145 0.688933 0.246195
615 1 0.188702 0.748255 0.183507
681 1 0.255196 0.751445 0.248399
616 1 0.123599 0.807142 0.18226
624 1 0.379915 0.806878 0.185018
623 1 0.436815 0.743936 0.184277
693 1 0.127453 0.872867 0.241977
631 1 0.191482 0.874444 0.179836
620 1 0.244493 0.808762 0.187827
639 1 0.436301 0.876001 0.184587
514 1 0.0585313 0.558863 0.00438686
636 1 0.250195 0.928934 0.186318
635 1 0.312656 0.873838 0.195621
640 1 0.375829 0.932557 0.185444
69 1 0.129141 0.993883 0.123991
3 1 0.06537 0.99896 0.062136
1681 1 0.498549 0.619245 0.252709
632 1 0.123051 0.930916 0.181793
533 1 0.121686 0.62845 0.00489749
642 1 0.0598361 0.566856 0.249421
646 1 0.186602 0.569387 0.256026
207 1 0.433766 1.00177 0.44117
564 1 0.00871826 0.941659 0.0611948
654 1 0.436151 0.563031 0.258157
661 1 0.127559 0.629962 0.257971
665 1 0.249514 0.626581 0.2389
650 1 0.312148 0.560311 0.246713
1684 1 0.497615 0.691209 0.308026
659 1 0.0643311 0.631971 0.312839
662 1 0.193444 0.69041 0.255331
666 1 0.310763 0.686745 0.247484
669 1 0.374185 0.622549 0.24738
671 1 0.443584 0.621539 0.317502
668 1 0.254305 0.690539 0.307317
685 1 0.376677 0.741306 0.248828
670 1 0.433629 0.681716 0.253463
674 1 0.0705283 0.806022 0.249142
677 1 0.132616 0.744537 0.245431
712 1 0.121104 0.565483 0.44769
678 1 0.183549 0.810739 0.241528
682 1 0.316677 0.810836 0.253631
686 1 0.435507 0.809271 0.24251
690 1 0.0652876 0.928085 0.246421
694 1 0.188198 0.934176 0.241043
697 1 0.241585 0.869766 0.245928
698 1 0.3147 0.93217 0.253184
701 1 0.380817 0.871065 0.246706
1700 1 0.494779 0.81856 0.308985
593 1 0.000198189 0.623093 0.128672
702 1 0.436264 0.936032 0.242911
747 1 0.320154 0.755116 0.435018
648 1 0.122276 0.568484 0.316975
743 1 0.187863 0.751703 0.434806
652 1 0.246054 0.563824 0.312779
760 1 0.119187 0.942887 0.435783
656 1 0.372431 0.571416 0.312676
732 1 0.257148 0.692012 0.443658
714 1 0.306778 0.561647 0.375851
667 1 0.305841 0.619932 0.307718
725 1 0.127942 0.629347 0.37432
663 1 0.199695 0.632342 0.318803
675 1 0.0554261 0.753782 0.323826
664 1 0.124224 0.69214 0.314876
741 1 0.122568 0.758904 0.376583
679 1 0.182556 0.754907 0.311325
683 1 0.312446 0.746572 0.311961
672 1 0.374211 0.686583 0.320352
764 1 0.247041 0.936229 0.437012
680 1 0.119583 0.813663 0.318166
684 1 0.250595 0.809796 0.310468
687 1 0.434745 0.752611 0.309283
695 1 0.185347 0.867758 0.306647
699 1 0.303468 0.875064 0.308888
688 1 0.372501 0.806525 0.312846
765 1 0.375288 0.874156 0.377307
691 1 0.0609669 0.871681 0.303842
696 1 0.132417 0.930462 0.305521
700 1 0.246308 0.93754 0.305237
704 1 0.368988 0.935554 0.322226
703 1 0.431952 0.870011 0.306867
829 1 0.372884 0.879716 0.500233
706 1 0.0629331 0.577609 0.378208
759 1 0.184679 0.875359 0.436575
768 1 0.362628 0.941357 0.433186
744 1 0.126164 0.812617 0.436547
710 1 0.18734 0.568911 0.378827
716 1 0.247235 0.563353 0.44244
729 1 0.247678 0.627323 0.384694
731 1 0.309142 0.626222 0.447931
733 1 0.377341 0.627715 0.376914
720 1 0.374083 0.562538 0.435279
718 1 0.442203 0.561203 0.383627
723 1 0.0617153 0.633225 0.443896
728 1 0.120494 0.693744 0.435503
727 1 0.182671 0.629719 0.441332
736 1 0.373238 0.682516 0.439352
735 1 0.439932 0.629079 0.429845
763 1 0.29896 0.872232 0.438127
722 1 0.0534373 0.688388 0.379579
726 1 0.187048 0.69688 0.372608
745 1 0.25675 0.747334 0.379832
730 1 0.306086 0.683607 0.371601
734 1 0.438741 0.696382 0.370149
742 1 0.184187 0.821173 0.371039
746 1 0.314951 0.808121 0.370148
749 1 0.37015 0.749421 0.375438
738 1 0.0626241 0.821734 0.379078
757 1 0.118961 0.880327 0.384455
761 1 0.239839 0.882555 0.371732
750 1 0.44216 0.805761 0.372326
755 1 0.0532131 0.880793 0.435427
762 1 0.30045 0.935603 0.370208
767 1 0.436284 0.875678 0.441899
754 1 0.0541058 0.941755 0.376437
1777 1 0.490388 0.879708 0.371935
758 1 0.183656 0.942087 0.377598
739 1 0.059172 0.755209 0.43094
766 1 0.425954 0.93622 0.382523
201 1 0.246758 0.999596 0.371003
740 1 0.000489653 0.819632 0.445155
67 1 0.0633974 0.993756 0.186088
515 1 0.0714799 0.501861 0.0675872
705 1 0.0135864 0.504471 0.37865
707 1 0.0649811 0.50631 0.440986
825 1 0.241233 0.88086 0.499144
77 1 0.371469 0.99159 0.12585
1089 1 0.499193 0.998501 0.125022
805 1 0.119079 0.754756 0.500891
810 1 0.303622 0.822443 0.497545
708 1 0.00531288 0.565147 0.440568
141 1 0.373667 0.999137 0.252299
73 1 0.255752 0.990614 0.11888
541 1 0.370061 0.634328 0.00471399
1841 1 0.49462 0.882306 0.498483
561 1 0.000825537 0.879942 0.006158
537 1 0.247696 0.62895 0.000927262
781 1 0.373657 0.507121 0.498478
530 1 0.0655829 0.68855 0.00512597
818 1 0.0623728 0.944425 0.495918
9 1 0.259943 0.991947 0.00441906
1828 1 0.499666 0.817571 0.5608
835 1 0.057924 0.502112 0.682473
553 1 0.246037 0.74929 0.996885
837 1 0.125254 0.50726 0.619885
907 1 0.309549 0.502279 0.806747
787 1 0.0649205 0.633758 0.560069
1844 1 0.489618 0.939894 0.5665
849 1 0.00794468 0.631022 0.620767
911 1 0.432523 0.500064 0.812396
799 1 0.44415 0.628389 0.562644
792 1 0.127175 0.693278 0.566919
323 1 0.0619838 0.99939 0.685254
791 1 0.190909 0.634707 0.571555
795 1 0.320955 0.630561 0.565896
809 1 0.25715 0.745203 0.50362
558 1 0.432574 0.815694 0.993153
796 1 0.252969 0.694389 0.572515
807 1 0.193198 0.756166 0.570044
811 1 0.316101 0.747884 0.56207
455 1 0.191373 0.99692 0.942084
803 1 0.0645876 0.758544 0.568053
812 1 0.253634 0.815392 0.567034
932 1 0.00370372 0.80204 0.819647
819 1 0.0601611 0.882064 0.567351
823 1 0.187263 0.88217 0.563113
881 1 -0.000766208 0.880033 0.637685
827 1 0.309404 0.879291 0.560851
969 1 0.242457 0.515024 0.877071
831 1 0.437661 0.870047 0.567621
824 1 0.125272 0.942796 0.560575
797 1 0.376224 0.619076 0.502307
832 1 0.376717 0.933163 0.567597
570 1 0.317855 0.935842 0.997214
821 1 0.129635 0.875526 0.502987
945 1 0.0100109 0.879359 0.766186
801 1 0.0066901 0.757718 0.506735
770 1 0.0609697 0.568921 0.507205
557 1 0.37271 0.751911 0.990031
790 1 0.189871 0.700881 0.502854
834 1 0.0646882 0.566223 0.627323
776 1 0.128021 0.571032 0.561332
780 1 0.253436 0.570601 0.574347
842 1 0.322866 0.563751 0.62219
784 1 0.378802 0.559686 0.561009
846 1 0.443414 0.562348 0.621453
800 1 0.384238 0.690943 0.57172
850 1 0.0664826 0.688519 0.62642
869 1 0.125268 0.750072 0.630359
873 1 0.255234 0.750676 0.632458
815 1 0.44603 0.752515 0.568348
1924 1 0.49546 0.55734 0.814893
808 1 0.131449 0.813939 0.560705
816 1 0.370141 0.812869 0.56268
885 1 0.130392 0.876375 0.62012
878 1 0.442375 0.811275 0.624986
793 1 0.24955 0.635934 0.51273
882 1 0.0619266 0.936041 0.63151
828 1 0.24832 0.941708 0.56162
894 1 0.440899 0.935868 0.630645
1281 1 0.494992 1.00021 0.502132
826 1 0.307809 0.935167 0.501438
542 1 0.435589 0.69369 0.995357
963 1 0.0593427 0.501051 0.948156
271 1 0.435055 0.996026 0.562481
574 1 0.433479 0.930214 0.992041
838 1 0.183577 0.570661 0.624505
857 1 0.24637 0.631648 0.633024
1023 1 0.441757 0.87286 0.928371
853 1 0.126562 0.626984 0.626895
854 1 0.190111 0.691628 0.635204
861 1 0.380584 0.626626 0.625739
862 1 0.445748 0.689295 0.627694
858 1 0.312966 0.693484 0.63413
877 1 0.372257 0.749139 0.628964
866 1 0.0671867 0.814073 0.631021
872 1 0.122724 0.816354 0.689094
870 1 0.187516 0.817208 0.629246
876 1 0.243923 0.814452 0.688464
874 1 0.314576 0.80947 0.623646
880 1 0.373609 0.813124 0.682552
889 1 0.24875 0.871357 0.62554
891 1 0.305627 0.872131 0.680352
893 1 0.377357 0.875113 0.623219
895 1 0.437225 0.869786 0.684005
886 1 0.189115 0.944963 0.618858
890 1 0.306461 0.934348 0.621191
5 1 0.126852 0.999032 0.997479
971 1 0.30651 0.506261 0.937091
794 1 0.319648 0.690871 0.501116
550 1 0.188476 0.814449 0.998142
973 1 0.367012 0.502667 0.876937
335 1 0.435162 0.990262 0.69342
788 1 0.000920207 0.695859 0.566655
840 1 0.128154 0.565955 0.682766
830 1 0.428794 0.938163 0.501781
902 1 0.192574 0.564303 0.749542
844 1 0.254949 0.557711 0.677312
848 1 0.379567 0.569341 0.688675
906 1 0.311816 0.561702 0.74952
331 1 0.319659 0.992643 0.685651
851 1 0.0637538 0.627743 0.687412
855 1 0.183297 0.629055 0.684831
859 1 0.315275 0.620568 0.678215
914 1 0.0648947 0.688143 0.74796
860 1 0.25162 0.692334 0.694362
925 1 0.37118 0.622597 0.74595
863 1 0.445073 0.628315 0.692239
867 1 0.0641374 0.755075 0.695819
856 1 0.125631 0.688179 0.69259
871 1 0.185659 0.751276 0.689963
922 1 0.312201 0.682361 0.748163
864 1 0.384716 0.693192 0.688827
879 1 0.442538 0.751615 0.685567
930 1 0.0632089 0.814517 0.754225
938 1 0.302696 0.824306 0.749355
875 1 0.309656 0.760403 0.690513
883 1 0.0683583 0.877094 0.693949
949 1 0.129779 0.872668 0.75237
887 1 0.185058 0.879399 0.68806
1016 1 0.130472 0.944077 0.939103
892 1 0.245142 0.94539 0.687022
896 1 0.376009 0.92979 0.691358
958 1 0.435983 0.934485 0.747925
888 1 0.128831 0.94491 0.684423
779 1 0.318724 0.500446 0.565367
2004 1 0.491123 0.689101 0.933974
1569 1 0.492776 0.753807 0.987064
1012 1 0.00229734 0.938578 0.934211
912 1 0.368519 0.560588 0.813413
884 1 0.00453631 0.935459 0.698216
461 1 0.386821 0.998944 0.869371
898 1 0.0646829 0.56446 0.740468
904 1 0.126898 0.562586 0.809813
921 1 0.256673 0.619524 0.753283
923 1 0.313233 0.624489 0.817295
910 1 0.446409 0.559499 0.746149
917 1 0.123632 0.628438 0.744579
918 1 0.186973 0.686212 0.745795
924 1 0.252131 0.692184 0.80589
931 1 0.067864 0.747669 0.813703
933 1 0.126766 0.744302 0.752492
937 1 0.249452 0.757574 0.751532
926 1 0.441234 0.681175 0.757201
935 1 0.189077 0.74691 0.815902
941 1 0.378488 0.753192 0.750288