ITEM: TIMESTEP
100000
ITEM: NUMBER OF ATOMS
2048
ITEM: BOX BOUNDS pp pp pp
0.0000000000000000e+00 1.1351867295763070e+01
0.0000000000000000e+00 1.1351867295763070e+01
0.0000000000000000e+00 1.1351867295763070e+01
ITEM: ATOMS id type xs ys zs
15 1 0.435178 0.00422477 0.0554566
12 1 0.243784 0.0557306 0.0650458
8 1 0.128899 0.0591516 0.0620762
23 1 0.186532 0.123888 0.0652055
49 1 0.00278149 0.37756 -0.0023976
19 1 0.0623719 0.128645 0.058103
24 1 0.128714 0.185998 0.0628019
27 1 0.307528 0.123134 0.0650397
61 1 0.374868 0.377791 -0.00155701
32 1 0.373802 0.180304 0.0623397
1156 1 0.498926 0.06405 0.312821
1 1 0.00239734 0.00556477 0.00573003
28 1 0.249026 0.185058 0.064585
1073 1 0.501325 0.372822 0.00339855
39 1 0.190056 0.249041 0.0578894
40 1 0.128292 0.309995 0.0597153
709 1 0.120935 0.495227 0.377005
44 1 0.253574 0.307665 0.0537703
48 1 0.378703 0.308933 0.0615544
281 1 0.248332 0.124814 0.499465
228 1 0.00358529 0.312238 0.439618
51 1 0.0648681 0.374234 0.0585726
59 1 0.318307 0.369798 0.062788
11 1 0.314844 0.00120623 0.0569879
63 1 0.438689 0.367019 0.0642913
302 1 0.432335 0.314953 0.504315
64 1 0.37766 0.433222 0.0635231
1121 1 0.500782 0.242849 0.120117
56 1 0.130059 0.445245 0.0621122
60 1 0.254155 0.431738 0.0533375
34 1 0.0644755 0.313466 0.00259184
1233 1 0.494246 0.127842 0.369886
3 1 0.0675719 0.00173077 0.0655554
16 1 0.372942 0.0608599 0.0600999
66 1 0.0587246 0.0617511 0.124817
70 1 0.187248 0.0652735 0.129413
31 1 0.438299 0.124821 0.0640275
583 1 0.190999 0.497341 0.188113
85 1 0.127413 0.124303 0.126699
89 1 0.245601 0.119423 0.125234
269 1 0.378424 0.00264534 0.499369
645 1 0.123825 0.496623 0.252516
82 1 0.0644499 0.186688 0.132901
35 1 0.0668394 0.248002 0.0619047
101 1 0.125071 0.247369 0.128731
105 1 0.247939 0.251852 0.123239
90 1 0.311109 0.186201 0.125457
43 1 0.31178 0.244459 0.0680052
527 1 0.436498 0.497595 0.0656765
47 1 0.438656 0.24786 0.0614566
98 1 0.0572793 0.311403 0.118705
55 1 0.195293 0.368619 0.0564632
125 1 0.377689 0.369039 0.124782
114 1 0.0617704 0.435545 0.119054
117 1 0.126828 0.380711 0.118971
126 1 0.430785 0.436687 0.12703
1140 1 0.497916 0.426342 0.183892
122 1 0.306774 0.433002 0.119261
653 1 0.375108 0.496297 0.254258
195 1 0.06611 0.00836496 0.440394
52 1 -0.000877562 0.43991 0.0597834
72 1 0.124424 0.0544297 0.188517
76 1 0.247624 0.0585639 0.185644
80 1 0.376804 0.0609455 0.183986
53 1 0.129816 0.373403 -0.00340626
87 1 0.18852 0.127811 0.189735
74 1 0.307718 0.0583624 0.124198
78 1 0.441909 0.0591407 0.120812
83 1 0.0630729 0.119836 0.184019
1201 1 0.495001 0.374754 0.251849
93 1 0.369732 0.119302 0.12164
94 1 0.436975 0.183586 0.125019
86 1 0.189112 0.190134 0.126338
103 1 0.183657 0.249162 0.18925
106 1 0.312334 0.311745 0.124262
112 1 0.37477 0.307368 0.185472
109 1 0.378859 0.246884 0.122352
111 1 0.445692 0.249445 0.18461
115 1 0.0653362 0.374213 0.178517
102 1 0.186261 0.307956 0.119972
110 1 0.440166 0.308909 0.121334
261 1 0.128244 0.00447161 0.495605
118 1 0.198679 0.432598 0.122012
121 1 0.249096 0.363864 0.122961
123 1 0.317253 0.373515 0.183075
128 1 0.375304 0.435827 0.191527
1249 1 0.497182 0.243744 0.368363
124 1 0.253646 0.435375 0.186534
100 1 0.00145884 0.312055 0.184703
116 1 -0.00268085 0.434748 0.185712
577 1 0.00103742 0.499591 0.125786
244 1 -0.000761205 0.436882 0.436679
153 1 0.243624 0.121174 0.251911
91 1 0.301633 0.123305 0.187697
88 1 0.124414 0.183333 0.192336
92 1 0.248078 0.186175 0.183506
96 1 0.371656 0.184559 0.179521
95 1 0.435223 0.122757 0.182277
99 1 0.0616389 0.244787 0.194196
150 1 0.189716 0.187894 0.248012
107 1 0.310796 0.250036 0.183909
154 1 0.311919 0.182815 0.246354
104 1 0.123437 0.315976 0.185031
165 1 0.122334 0.250933 0.248717
108 1 0.247767 0.309161 0.188278
1236 1 0.497109 0.183429 0.436577
119 1 0.184078 0.378246 0.180993
178 1 0.0603696 0.43553 0.25159
120 1 0.123044 0.433766 0.182632
185 1 0.242718 0.37225 0.249317
127 1 0.436342 0.373829 0.188576
113 1 0.00149691 0.373985 0.120999
77 1 0.374444 0.00214184 0.120607
190 1 0.438282 0.439609 0.251763
138 1 0.309766 0.0619744 0.245228
1601 1 0.495896 0.495722 0.123807
130 1 0.0580279 0.0579151 0.244099
149 1 0.123408 0.122085 0.24951
134 1 0.183085 0.0602058 0.249215
157 1 0.372223 0.119567 0.250162
144 1 0.373911 0.0598428 0.314344
142 1 0.439875 0.0624235 0.243426
655 1 0.437687 0.498495 0.31371
318 1 0.439108 0.43643 0.496542
156 1 0.245568 0.187644 0.318073
155 1 0.304676 0.12335 0.311426
158 1 0.434775 0.193643 0.244707
1076 1 0.495364 0.430748 0.0648441
1044 1 0.499827 0.190322 0.0596528
146 1 0.064439 0.185717 0.251228
167 1 0.181198 0.256345 0.313538
171 1 0.305126 0.256883 0.311786
79 1 0.437323 -0.000760433 0.18171
162 1 0.0608262 0.312479 0.248285
168 1 0.117268 0.312588 0.308841
169 1 0.241596 0.253101 0.24893
166 1 0.183831 0.308062 0.246012
174 1 0.429002 0.308256 0.248981
173 1 0.366187 0.248249 0.245891
181 1 0.124484 0.378912 0.251072
172 1 0.243574 0.311643 0.316271
170 1 0.307511 0.312561 0.246234
191 1 0.434943 0.36845 0.311579
184 1 0.122761 0.439109 0.314521
187 1 0.307701 0.371586 0.307781
189 1 0.374642 0.372517 0.251145
227 1 0.0595091 0.251276 0.439995
182 1 0.187741 0.443638 0.255817
1297 1 0.496145 0.122917 0.500367
186 1 0.312016 0.4376 0.248918
1265 1 0.499633 0.36646 0.380403
143 1 0.439365 0.002454 0.311255
136 1 0.124941 0.0539724 0.310336
140 1 0.246705 0.0581043 0.313819
202 1 0.31735 0.0616675 0.38194
206 1 0.437903 0.0633768 0.375952
2 1 0.0609351 0.0634126 0.00719248
221 1 0.375435 0.121493 0.373531
152 1 0.123394 0.189339 0.314821
147 1 0.0646986 0.121315 0.318073
151 1 0.186803 0.124392 0.318183
214 1 0.181827 0.188029 0.375324
218 1 0.311629 0.182402 0.375565
159 1 0.43843 0.122341 0.305984
25 1 0.249471 0.123117 0.000247299
229 1 0.121708 0.247053 0.380137
160 1 0.369805 0.186593 0.313884
237 1 0.375212 0.250905 0.371522
175 1 0.439144 0.245538 0.307936
163 1 0.0570657 0.252055 0.313695
234 1 0.314666 0.311743 0.380767
262 1 0.192903 0.062018 0.50095
179 1 0.0605532 0.377776 0.311629
183 1 0.183301 0.379928 0.315993
176 1 0.369455 0.309285 0.310968
188 1 0.250306 0.43489 0.308429
242 1 0.0590097 0.435824 0.375611
717 1 0.373874 0.490964 0.375953
192 1 0.378317 0.43363 0.315299
705 1 -0.00269151 0.500355 0.381152
200 1 0.131532 0.0654618 0.440178
198 1 0.191307 0.06176 0.378631
204 1 0.253965 0.0638537 0.43716
651 1 0.309873 0.497935 0.313865
194 1 0.055687 0.0607264 0.375727
213 1 0.127093 0.122124 0.375203
217 1 0.254021 0.123465 0.376075
1217 1 0.495627 0.00129243 0.374661
222 1 0.431658 0.185619 0.37501
210 1 0.0554889 0.185441 0.37809
216 1 0.12491 0.188862 0.442428
239 1 0.438267 0.248879 0.43406
145 1 0.00646243 0.127931 0.252537
226 1 0.0662565 0.314107 0.37727
232 1 0.1259 0.318233 0.434246
230 1 0.177117 0.31501 0.373075
233 1 0.243715 0.250525 0.376972
238 1 0.43653 0.309788 0.368139
235 1 0.312124 0.247825 0.436494
249 1 0.244629 0.374105 0.372207
251 1 0.311196 0.377552 0.437723
253 1 0.378051 0.373566 0.375527
199 1 0.188475 0.000847172 0.434101
245 1 0.12444 0.38165 0.374501
250 1 0.314382 0.4336 0.369262
256 1 0.374751 0.43673 0.441221
254 1 0.43767 0.44053 0.380232
231 1 0.184964 0.253978 0.441644
246 1 0.190354 0.440551 0.372056
248 1 0.128148 0.437065 0.436755
255 1 0.432542 0.370164 0.441035
243 1 0.0650517 0.380686 0.440496
707 1 0.0627251 0.493555 0.440959
247 1 0.197241 0.370148 0.443947
224 1 0.376269 0.18895 0.442431
240 1 0.374553 0.312908 0.439559
236 1 0.249758 0.308573 0.435492
215 1 0.184855 0.126654 0.438872
212 1 -0.00386016 0.190566 0.441022
219 1 0.312463 0.125172 0.441762
208 1 0.376851 0.0664887 0.442436
223 1 0.437022 0.126826 0.436713
211 1 0.0536697 0.124346 0.437809
220 1 0.245748 0.183989 0.438506
252 1 0.243817 0.440285 0.438943
266 1 0.30886 0.0596607 0.494854
207 1 0.439551 0.00720496 0.437561
241 1 -0.00537873 0.371363 0.373173
1252 1 0.493469 0.309376 0.435378
132 1 -0.000695007 0.0618494 0.310458
1169 1 0.498747 0.124177 0.245283
1204 1 0.495694 0.431339 0.31754
581 1 0.124435 0.496063 0.126515
30 1 0.432808 0.187625 0.00127691
37 1 0.125655 0.249036 0.0035494
22 1 0.190157 0.187076 0.00498182
314 1 0.311101 0.438464 0.497737
298 1 0.312525 0.313283 0.497496
21 1 0.125722 0.126834 0.00273837
1537 1 0.49468 0.494037 -0.00015381
290 1 0.0671673 0.320385 0.494236
1505 1 0.496137 0.24981 0.875506
436 1 0.00801911 0.436878 0.813221
258 1 0.0611475 0.0674176 0.498811
283 1 0.301735 0.125234 0.562408
1313 1 0.497534 0.252198 0.497446
309 1 0.130858 0.377048 0.500027
285 1 0.37161 0.132859 0.504138
481 1 0.00446559 0.254178 0.876486
1361 1 0.499425 0.125767 0.61613
17 1 -0.00337266 0.12857 0.996531
420 1 0.0071916 0.308316 0.810615
497 1 0.00566517 0.37502 0.871075
897 1 0.00760391 0.498525 0.753696
1348 1 0.497102 0.0684285 0.68185
459 1 0.310812 -0.00582583 0.930369
1489 1 0.501505 0.12521 0.87025
9 1 0.253365 -0.00341219 0.997642
839 1 0.189309 0.499439 0.69022
841 1 0.252258 0.495429 0.628072
267 1 0.313262 0.00418497 0.561159
484 1 0.000829924 0.314751 0.938934
6 1 0.191299 0.0573648 0.999827
512 1 0.376842 0.438311 0.934389
278 1 0.184675 0.191937 0.499542
18 1 0.0578992 0.187336 0.998171
312 1 0.130095 0.438091 0.565114
316 1 0.251937 0.441841 0.559386
901 1 0.126411 0.499761 0.749772
340 1 0.00170309 0.187637 0.686961
268 1 0.248758 0.0612808 0.569707
330 1 0.307866 0.0618181 0.624152
272 1 0.372173 0.0641044 0.560313
275 1 0.0625471 0.126623 0.564122
264 1 0.125068 0.0593809 0.559615
279 1 0.185712 0.124087 0.565921
345 1 0.243212 0.127712 0.628746
287 1 0.430649 0.124674 0.561069
271 1 0.435631 -0.00257884 0.565374
341 1 0.121056 0.126213 0.623447
288 1 0.373654 0.189478 0.569707
468 1 0.000940599 0.19141 0.932384
280 1 0.124231 0.189073 0.563109
284 1 0.241868 0.187974 0.567472
303 1 0.439084 0.249224 0.567363
14 1 0.446182 0.0599824 0.994211
291 1 0.0669253 0.248238 0.562835
357 1 0.122933 0.247925 0.629422
295 1 0.185 0.250344 0.568898
361 1 0.246812 0.251339 0.623868
299 1 0.310944 0.247763 0.56513
304 1 0.375645 0.31728 0.56542
500 1 0.00142976 0.440605 0.938804
354 1 0.0699037 0.309854 0.627606
296 1 0.125613 0.309449 0.564486
358 1 0.186617 0.317282 0.622184
300 1 0.261123 0.315955 0.570008
315 1 0.313903 0.380364 0.561346
381 1 0.37794 0.378827 0.628498
369 1 0.0016398 0.373809 0.620551
307 1 0.0664718 0.370668 0.563776
373 1 0.129508 0.377047 0.621566
311 1 0.193046 0.376446 0.56108
378 1 0.315812 0.43603 0.622636
319 1 0.434966 0.378825 0.559
783 1 0.444821 0.497497 0.55933
320 1 0.373612 0.439421 0.558763
508 1 0.252091 0.436684 0.9353
506 1 0.311188 0.440711 0.869114
326 1 0.183917 0.0632359 0.62252
835 1 0.0630969 0.496122 0.693609
334 1 0.43135 0.0663446 0.625727
322 1 0.0614708 0.0494495 0.620465
332 1 0.245618 0.0616243 0.687238
349 1 0.370557 0.121591 0.623573
339 1 0.0612626 0.122281 0.683144
343 1 0.185075 0.122662 0.685939
350 1 0.434467 0.190884 0.629952
351 1 0.435958 0.124849 0.684619
338 1 0.0615755 0.189222 0.626562
62 1 0.43698 0.439492 1.00014
342 1 0.182408 0.188919 0.63203
344 1 0.116597 0.183513 0.693043
346 1 0.306061 0.183584 0.626506
365 1 0.369521 0.258233 0.622384
367 1 0.437431 0.25298 0.687801
1425 1 0.500841 0.129147 0.744545
362 1 0.316912 0.319482 0.628322
366 1 0.436455 0.316548 0.622764
503 1 0.190648 0.371631 0.933618
370 1 0.0666125 0.436561 0.620159
375 1 0.190682 0.37206 0.684625
377 1 0.250221 0.37682 0.625676
384 1 0.381224 0.438209 0.685763
382 1 0.442693 0.44242 0.628232
58 1 0.318035 0.440528 1.00119
374 1 0.190445 0.436726 0.622342
843 1 0.312206 0.497204 0.69117
1300 1 0.498282 0.186107 0.561671
510 1 0.440164 0.440807 0.872277
386 1 0.0604071 0.0584111 0.751269
46 1 0.432636 0.313927 0.998855
328 1 0.123551 0.0634035 0.688887
390 1 0.182835 0.0640457 0.752025
394 1 0.310058 0.0601843 0.744793
336 1 0.37107 0.0618673 0.685739
405 1 0.116713 0.120191 0.750665
347 1 0.308358 0.120643 0.686652
410 1 0.312818 0.183295 0.745915
352 1 0.371408 0.182373 0.686443
414 1 0.430593 0.186997 0.74633
359 1 0.190315 0.250227 0.692028
348 1 0.247813 0.189631 0.688533
363 1 0.315186 0.254677 0.68798
903 1 0.186474 0.501474 0.811719
355 1 0.0646012 0.246937 0.688582
421 1 0.124007 0.248162 0.745124
368 1 0.376876 0.315822 0.687533
360 1 0.12869 0.314924 0.687482
364 1 0.24856 0.310658 0.687292
383 1 0.444104 0.372891 0.685555
430 1 0.444465 0.312447 0.750782
371 1 0.0633447 0.370941 0.689267
437 1 0.13007 0.372054 0.750226
438 1 0.18628 0.435581 0.753844
379 1 0.310815 0.383744 0.689582
337 1 0.00144755 0.126479 0.625458
376 1 0.12308 0.433925 0.690293
779 1 0.315946 0.494784 0.56032
380 1 0.245868 0.436096 0.69227
327 1 0.183904 0.000528432 0.679539
293 1 0.122942 0.25387 0.501542
392 1 0.12343 0.0543612 0.815804
396 1 0.254222 0.0561411 0.805658
54 1 0.191045 0.43889 0.998147
400 1 0.37362 0.0591804 0.811204
504 1 0.131594 0.431536 0.936154
409 1 0.248604 0.122736 0.749473
411 1 0.311889 0.12409 0.811185
398 1 0.438393 0.0649723 0.742318
502 1 0.19351 0.434836 0.871721
407 1 0.181962 0.120117 0.814181
412 1 0.249537 0.18757 0.811681
413 1 0.369761 0.119727 0.749805
1460 1 0.496998 0.441886 0.815761
401 1 -0.00444014 0.120893 0.752152
402 1 0.0599992 0.183456 0.751977
406 1 0.187298 0.186295 0.747205
427 1 0.309771 0.251337 0.812329
429 1 0.378281 0.253872 0.748579
419 1 0.0669154 0.2431 0.810611
425 1 0.258243 0.249926 0.747987
432 1 0.377362 0.314005 0.804969
431 1 0.437131 0.254687 0.81047
331 1 0.312222 -0.00334684 0.686786
418 1 0.0605674 0.304389 0.745811
422 1 0.191153 0.312181 0.754473
426 1 0.311207 0.318717 0.74475
435 1 0.0689607 0.375485 0.809346
441 1 0.247601 0.374003 0.751382
445 1 0.375 0.378405 0.746144
442 1 0.313659 0.443727 0.749802
452 1 -0.0011353 0.0628023 0.942479
434 1 0.0654155 0.43435 0.753206
440 1 0.124389 0.435906 0.817721
446 1 0.437587 0.437527 0.745068
301 1 0.373129 0.252912 0.498258
451 1 0.0636281 -0.00627848 0.943812
458 1 0.31201 0.0590637 0.869005
450 1 0.0602874 0.0596608 0.880179
454 1 0.190245 0.0560898 0.875866
473 1 0.244684 0.124224 0.875035
492 1 0.250068 0.308037 0.933798
403 1 0.056639 0.120644 0.819892
416 1 0.374817 0.185137 0.807815
415 1 0.434976 0.114535 0.809838
408 1 0.122426 0.179253 0.809747
470 1 0.179829 0.18629 0.870287
489 1 0.248059 0.24981 0.872474
493 1 0.372109 0.250329 0.870557
478 1 0.432487 0.189382 0.872158
274 1 0.0619394 0.191052 0.49772
485 1 0.127361 0.24986 0.868739
423 1 0.187206 0.245553 0.807198
490 1 0.320355 0.315127 0.87165
494 1 0.438249 0.315195 0.873582
424 1 0.120432 0.307357 0.807392
428 1 0.256198 0.3168 0.815523
443 1 0.31452 0.379404 0.806323
509 1 0.370581 0.377151 0.871068
447 1 0.437107 0.37795 0.812471
439 1 0.190176 0.374222 0.814463
498 1 0.065107 0.43942 0.877625
276 1 0.00156046 0.188223 0.565502
444 1 0.250314 0.438972 0.809116
448 1 0.37351 0.442259 0.814222
372 1 -0.000341737 0.43273 0.686762
270 1 0.438787 0.0585129 0.506318
511 1 0.435738 0.375218 0.942076
460 1 0.248212 0.0654942 0.935967
456 1 0.120507 0.0645433 0.942328
469 1 0.124009 0.123238 0.876237
471 1 0.183016 0.124604 0.933748
464 1 0.372751 0.0610213 0.933243
462 1 0.433648 0.0584427 0.870312
479 1 0.43935 0.121316 0.934997
467 1 0.062529 0.126108 0.939821
472 1 0.116826 0.187007 0.938999
476 1 0.246819 0.187538 0.937301
474 1 0.304797 0.186113 0.874718
477 1 0.376655 0.119446 0.871677
480 1 0.377423 0.18458 0.936302
1377 1 0.499704 0.252035 0.626027
499 1 0.0616721 0.374337 0.931682
466 1 0.0637696 0.18706 0.875855
487 1 0.18373 0.24444 0.936698
491 1 0.31876 0.251579 0.940326
495 1 0.434259 0.250506 0.935779
483 1 0.0650542 0.255341 0.939596
496 1 0.376468 0.310022 0.932683
475 1 0.315567 0.120753 0.930117
482 1 0.0636904 0.314573 0.874441
501 1 0.123815 0.37241 0.870275
488 1 0.125977 0.315518 0.936931
486 1 0.187386 0.306992 0.871646
505 1 0.258283 0.377946 0.87147
507 1 0.311355 0.374172 0.933164
26 1 0.319296 0.185727 1.00013
465 1 -0.000923387 0.124293 0.879849
911 1 0.437701 0.501245 0.813735
259 1 0.0616409 -0.000399525 0.553818
335 1 0.438102 0.00230982 0.679691
773 1 0.125006 0.500391 0.503261
775 1 0.186966 0.503042 0.565964
1428 1 0.49808 0.188207 0.81227
297 1 0.245459 0.252229 0.504794
38 1 0.191752 0.310511 0.994908
29 1 0.382213 0.117633 0.996427
42 1 0.316653 0.315692 0.997038
837 1 0.125432 0.500918 0.622942
265 1 0.252452 -0.00209639 0.498332
899 1 0.0681643 0.501054 0.814982
975 1 0.440099 0.501932 0.930725
397 1 0.378752 0.000204183 0.750864
294 1 0.187808 0.310811 0.503401
845 1 0.368894 0.499342 0.626702
57 1 0.253205 0.371711 0.993993
10 1 0.313716 0.0624571 0.994056
33 1 0.00139444 0.253249 1.00261
45 1 0.374833 0.250288 1.00122
1393 1 0.500729 0.380162 0.618279
313 1 0.253144 0.374617 0.508044
961 1 0.00458055 0.499715 0.878692
260 1 0.00280313 0.0614785 0.558275
388 1 0.00108866 0.053474 0.813766
292 1 0.00437054 0.311101 0.56312
50 1 0.0725371 0.438314 1.0017
1316 1 0.49512 0.318826 0.559575
449 1 1.17603e-05 -0.00354913 0.878769
263 1 0.18963 0.00170459 0.559428
389 1 0.119423 0.000607494 0.745369
905 1 0.246993 0.501071 0.75208
833 1 -0.000438583 0.490479 0.628272
306 1 0.0631347 0.433868 0.508421
41 1 0.252084 0.250729 0.992673
282 1 0.305268 0.186953 0.503681
1057 1 0.498193 0.245391 0.994024
277 1 0.127736 0.124393 0.500409
13 1 0.376517 0.0061591 0.993544
305 1 0.00298612 0.373189 0.503638
317 1 0.36907 0.378539 0.500697
286 1 0.437319 0.191748 0.50446
310 1 0.194784 0.441306 0.502903
289 1 0.00502288 0.250609 0.502154
587 1 0.315817 0.500225 0.187927
520 1 0.132859 0.559479 0.0712167
524 1 0.252497 0.562798 0.0534298
528 1 0.38547 0.566181 0.0580186
644 1 0.00355293 0.562035 0.31523
539 1 0.314842 0.625192 0.0679744
546 1 0.0602527 0.810182 -0.00497609
1729 1 0.500831 0.499483 0.381507
544 1 0.377665 0.690409 0.0597428
547 1 0.0647826 0.747389 0.0569008
536 1 0.123626 0.681086 0.0709537
555 1 0.318326 0.747747 0.0618052
139 1 0.315005 0.99865 0.316495
559 1 0.443762 0.750109 0.0628448
69 1 0.125666 0.992873 0.125027
552 1 0.132182 0.807221 0.0595688
1809 1 0.494705 0.627785 0.50036
830 1 0.444039 0.942383 0.494899
756 1 0.000562727 0.935368 0.438728
556 1 0.255459 0.804855 0.0593568
571 1 0.311774 0.870347 0.06288
564 1 -0.000739194 0.931927 0.0713745
554 1 0.313442 0.811293 -0.00294459
720 1 0.373268 0.563686 0.438666
572 1 0.25285 0.93151 0.0554742
751 1 0.446407 0.752497 0.439361
628 1 0.00323616 0.937333 0.18724
724 1 0.000200019 0.683951 0.440857
798 1 0.434189 0.6896 0.500205
565 1 0.122692 0.870423 -7.51411e-05
590 1 0.445138 0.563267 0.127707
1604 1 0.498687 0.565406 0.192948
531 1 0.0603958 0.621374 0.0613753
535 1 0.186 0.623006 0.0689666
601 1 0.253669 0.622792 0.129668
605 1 0.378565 0.623455 0.126785
543 1 0.440913 0.623483 0.0623512
591 1 0.439442 0.49852 0.191816
594 1 0.0570418 0.682547 0.12158
540 1 0.253392 0.688702 0.062909
602 1 0.320081 0.688266 0.125806
606 1 0.446238 0.686671 0.127704
715 1 0.315991 0.502066 0.436963
551 1 0.187071 0.74147 0.0699632
621 1 0.381919 0.749722 0.125248
614 1 0.186204 0.807199 0.127912
617 1 0.260579 0.748625 0.12802
560 1 0.37818 0.809369 0.064423
622 1 0.444322 0.809426 0.129657
205 1 0.375194 0.996788 0.37482
596 1 -0.00338142 0.686777 0.188268
633 1 0.252575 0.866614 0.122472
753 1 0.000931944 0.876958 0.372038
563 1 0.0650842 0.86836 0.0646594
567 1 0.190633 0.869315 0.0622817
576 1 0.372268 0.936097 0.0642642
575 1 0.4411 0.876473 0.0601718
203 1 0.317802 1.00207 0.435895
568 1 0.122476 0.935518 0.059531
630 1 0.185542 0.928745 0.120585
727 1 0.184825 0.61835 0.440508
777 1 0.246647 0.505397 0.502312
519 1 0.193203 0.504569 0.0598776
578 1 0.065754 0.560765 0.122371
676 1 0.00442214 0.812483 0.313823
1588 1 0.499888 0.939734 0.0656344
586 1 0.315342 0.564698 0.129443
133 1 0.114922 0.995291 0.248161
768 1 0.373841 0.938328 0.438154
595 1 0.05598 0.622002 0.186561
582 1 0.191591 0.558491 0.128122
592 1 0.378181 0.562747 0.193544
607 1 0.434904 0.622892 0.184907
137 1 0.247911 1.00464 0.254307
597 1 0.126911 0.621411 0.127139
598 1 0.184908 0.679923 0.130729
603 1 0.31791 0.626134 0.186196
608 1 0.384648 0.689888 0.186321
821 1 0.127058 0.872825 0.497707
613 1 0.125029 0.745876 0.128253
615 1 0.189926 0.74832 0.188248
619 1 0.32107 0.750057 0.188196
623 1 0.442662 0.752292 0.186914
618 1 0.31521 0.80767 0.120277
610 1 0.0629785 0.806323 0.120836
629 1 0.127819 0.867301 0.12099
620 1 0.261253 0.813076 0.187409
635 1 0.317488 0.875425 0.180598
637 1 0.379857 0.874826 0.120086
634 1 0.31345 0.939747 0.121215
638 1 0.43409 0.939018 0.120442
626 1 0.0653831 0.931091 0.126438
632 1 0.125691 0.934787 0.183823
67 1 0.0605735 1.00193 0.180846
642 1 0.0610159 0.556721 0.245695
584 1 0.127739 0.556917 0.18607
650 1 0.318845 0.559119 0.255715
1585 1 0.497715 0.872217 -0.00587085
1716 1 0.500424 0.93726 0.310781
661 1 0.120784 0.619471 0.245579
588 1 0.253324 0.557767 0.187684
599 1 0.185178 0.620385 0.193079
665 1 0.252891 0.62082 0.251642
654 1 0.433982 0.561721 0.253171
826 1 0.315343 0.941896 0.496292
658 1 0.0603148 0.690203 0.247013
604 1 0.252888 0.683905 0.187132
669 1 0.37582 0.625016 0.252602
625 1 0.00480307 0.870667 0.129383
611 1 0.05922 0.748599 0.183074
600 1 0.121903 0.685112 0.18562
616 1 0.122325 0.809497 0.190456
678 1 0.189668 0.813758 0.242817
681 1 0.249686 0.746154 0.249857
682 1 0.310343 0.802841 0.252334
624 1 0.378899 0.812094 0.185346
686 1 0.439585 0.810672 0.247217
589 1 0.379509 0.503338 0.132901
627 1 0.063116 0.872267 0.189358
631 1 0.186011 0.872669 0.185591
697 1 0.259422 0.873477 0.249093
701 1 0.372018 0.879027 0.247567
639 1 0.440658 0.875143 0.186363
698 1 0.311541 0.94206 0.251263
640 1 0.374012 0.940246 0.17935
585 1 0.255264 0.49858 0.122154
558 1 0.440335 0.809442 -0.000679194
649 1 0.248965 0.501091 0.253362
740 1 0.00485582 0.814519 0.439479
694 1 0.187952 0.937518 0.253833
516 1 0.00124014 0.558986 0.0659866
636 1 0.241836 0.928246 0.183409
1540 1 0.502323 0.554999 0.0618589
646 1 0.186292 0.560472 0.252307
561 1 -0.00166865 0.872434 0.00367807
73 1 0.243896 0.999521 0.128427
659 1 0.0585552 0.622694 0.304688
656 1 0.373431 0.557842 0.318012
662 1 0.194665 0.682452 0.248489
666 1 0.312751 0.687245 0.250474
670 1 0.440887 0.687545 0.25366
534 1 0.188376 0.687478 0.00158218
131 1 0.0603994 0.995093 0.310346
677 1 0.124932 0.748463 0.248056
668 1 0.250129 0.686068 0.310879
685 1 0.380642 0.751037 0.244995
778 1 0.312962 0.561262 0.5059
674 1 0.0647242 0.809627 0.249288
688 1 0.374359 0.810771 0.312175
687 1 0.436909 0.751063 0.307662
680 1 0.127825 0.809925 0.313068
684 1 0.249606 0.813595 0.316456
690 1 0.0600288 0.932229 0.24796
693 1 0.125611 0.871796 0.248808
702 1 0.439483 0.941257 0.249852
704 1 0.375251 0.934833 0.311393
1681 1 0.501873 0.629545 0.248002
696 1 0.119434 0.933421 0.308356
754 1 0.0569931 0.940119 0.373813
700 1 0.250848 0.937215 0.311824
579 1 0.0628121 0.501857 0.185189
716 1 0.249373 0.561095 0.437388
1665 1 0.500084 0.502188 0.253563
135 1 0.188293 0.995732 0.316148
710 1 0.186945 0.564468 0.377111
735 1 0.430825 0.625148 0.441387
648 1 0.126967 0.560963 0.314913
663 1 0.183115 0.624785 0.309909
652 1 0.252806 0.563469 0.316234
714 1 0.316952 0.557669 0.378766
671 1 0.435489 0.625845 0.310166
643 1 0.0575513 0.499472 0.310473
664 1 0.124617 0.687574 0.306626
726 1 0.188582 0.683484 0.373889
667 1 0.31936 0.622268 0.314405
672 1 0.374134 0.691467 0.317484
675 1 0.0651165 0.747913 0.315438
683 1 0.315105 0.749453 0.318585
730 1 0.308398 0.688147 0.374209
767 1 0.439999 0.876028 0.44126
738 1 0.0666175 0.807486 0.379216
679 1 0.18789 0.744097 0.311114
746 1 0.30889 0.807462 0.378777
757 1 0.128412 0.876654 0.375191
742 1 0.182084 0.813901 0.374931
703 1 0.436396 0.871184 0.303172
691 1 0.0634568 0.872396 0.311129
760 1 0.12769 0.938041 0.433986
695 1 0.18328 0.870945 0.310736
761 1 0.249224 0.872358 0.376386
699 1 0.31438 0.871648 0.313904
762 1 0.306865 0.936465 0.372908
766 1 0.434904 0.939386 0.372047
736 1 0.370855 0.689464 0.442161
752 1 0.379984 0.809804 0.435758
758 1 0.189363 0.936339 0.37096
765 1 0.381422 0.874873 0.375575
748 1 0.247662 0.811136 0.434316
732 1 0.244119 0.68326 0.441623
755 1 0.0683592 0.876347 0.436275
712 1 0.114586 0.561166 0.444192
706 1 0.067184 0.562674 0.371287
723 1 0.0585688 0.626073 0.443326
725 1 0.118745 0.630312 0.368758
729 1 0.251782 0.625037 0.375015
711 1 0.183282 0.503366 0.438916
718 1 0.435207 0.563861 0.375777
722 1 0.0625363 0.688847 0.373647
728 1 0.117076 0.686977 0.439688
731 1 0.311427 0.621512 0.440266
733 1 0.375203 0.630453 0.379119
734 1 0.440562 0.691426 0.375292
739 1 0.0603726 0.747566 0.442898
745 1 0.249843 0.746533 0.377518
749 1 0.373547 0.746319 0.379864
741 1 0.125943 0.743732 0.372099
743 1 0.182504 0.745774 0.439793
747 1 0.306373 0.746433 0.44175
750 1 0.4411 0.812853 0.374033
764 1 0.244909 0.936283 0.43778
744 1 0.124736 0.805247 0.436904
759 1 0.186484 0.873807 0.440878
763 1 0.305055 0.877371 0.436661
829 1 0.373722 0.87632 0.495555
201 1 0.249971 1.00206 0.374255
141 1 0.381451 1.001 0.249058
806 1 0.185802 0.808541 0.499665
810 1 0.311187 0.809591 0.494146
538 1 0.313339 0.688489 -0.00115143
802 1 0.0657572 0.817406 0.499906
532 1 -0.000582496 0.685254 0.0614983
1697 1 0.499961 0.75568 0.248264
793 1 0.252306 0.617781 0.503786
818 1 0.0633284 0.938751 0.492851
515 1 0.0672598 0.499677 0.0624791
525 1 0.379358 0.505313 -0.000398919
75 1 0.316231 1.00208 0.188839
719 1 0.433889 0.507309 0.440043
813 1 0.376317 0.753596 0.502665
1745 1 0.493951 0.626467 0.379664
7 1 0.194913 0.988624 0.0644635
713 1 0.247053 0.500095 0.380048
197 1 0.123488 0.996218 0.370539
523 1 0.324886 0.498206 0.0672509
647 1 0.191257 0.503319 0.320698
71 1 0.183509 0.989673 0.188628
1553 1 0.50243 0.624998 -0.00197932
5 1 0.129372 0.998591 0.0046993
530 1 0.065023 0.685976 0.00141409
562 1 0.0559594 0.936704 0.00930766
533 1 0.127319 0.62705 0.00169368
537 1 0.249896 0.628294 0.00201694
574 1 0.436541 0.932893 0.000598983
455 1 0.184125 0.995776 0.936011
461 1 0.380703 0.993843 0.8739
780 1 0.249222 0.559289 0.566976
969 1 0.250997 0.502293 0.878537
787 1 0.0623316 0.625395 0.565114
791 1 0.185575 0.620048 0.562462
557 1 0.376079 0.752369 0.999574
517 1 0.12423 0.501419 0.999712
784 1 0.375919 0.559098 0.563905
463 1 0.438863 0.996316 0.936895
792 1 0.122391 0.680691 0.567473
795 1 0.311228 0.622711 0.568354
771 1 0.0580932 0.500514 0.564408
799 1 0.437923 0.626104 0.565201
2033 1 0.502341 0.870887 0.875871
807 1 0.181344 0.754684 0.561609
808 1 0.121332 0.812218 0.559358
399 1 0.441995 1.00253 0.809464
1345 1 0.503065 0.998621 0.621947
816 1 0.371223 0.813476 0.561667
819 1 0.0595118 0.879782 0.558422
812 1 0.243698 0.813872 0.559005
522 1 0.319596 0.564186 0.993603
831 1 0.438366 0.884351 0.562924
1873 1 0.498419 0.628271 0.623509
977 1 0.00319848 0.621235 0.868528
824 1 0.12356 0.940153 0.554875
828 1 0.248243 0.938009 0.56113
794 1 0.310274 0.681211 0.502376
849 1 -0.00135946 0.623078 0.627467
782 1 0.434552 0.56575 0.50107
1908 1 0.500989 0.942481 0.684559
2020 1 0.504086 0.810799 0.936785
1844 1 0.500458 0.936687 0.554612
836 1 0.0020535 0.560031 0.688656
2036 1 0.501092 0.932168 0.932697
900 1 0.00628666 0.558728 0.814311
323 1 0.0542001 0.993728 0.690108
805 1 0.120845 0.743161 0.504693
776 1 0.124891 0.563536 0.563088
838 1 0.188358 0.559103 0.626632
854 1 0.186176 0.684523 0.630901
853 1 0.125049 0.619534 0.629436
457 1 0.248654 0.995527 0.872902
803 1 0.0586219 0.745137 0.57011
850 1 0.0614434 0.686366 0.626984
796 1 0.24896 0.686809 0.565394
800 1 0.373927 0.688864 0.558207
815 1 0.440323 0.74978 0.558156
526 1 0.442862 0.560863 0.997013
873 1 0.244096 0.751307 0.623512
811 1 0.308071 0.750713 0.559527
878 1 0.440868 0.811774 0.616624
996 1 -0.000679879 0.808602 0.937927
866 1 0.0663746 0.815107 0.626793
827 1 0.310718 0.870602 0.555865
893 1 0.378169 0.87798 0.623168
882 1 0.0612759 0.939912 0.616489
823 1 0.183717 0.867951 0.560612
889 1 0.24805 0.875683 0.618045
832 1 0.376615 0.938242 0.555425
894 1 0.437812 0.938347 0.624025
916 1 -0.00168309 0.684733 0.812407
886 1 0.18516 0.938773 0.61916
963 1 0.0692857 0.498751 0.935395
770 1 0.0581228 0.564824 0.504901
907 1 0.314 0.503174 0.814279
972 1 0.252309 0.564408 0.940079
846 1 0.437686 0.555063 0.623293
834 1 0.0590143 0.565423 0.624
844 1 0.247708 0.561345 0.693125
842 1 0.308791 0.555626 0.629731
566 1 0.192794 0.933295 0.998214
851 1 0.0634873 0.623985 0.685321
857 1 0.247233 0.616952 0.623981
861 1 0.370035 0.62311 0.631219
862 1 0.43864 0.687617 0.621743
1020 1 0.250477 0.937199 0.937872
867 1 0.0519072 0.752347 0.687385
860 1 0.250304 0.690783 0.686177
858 1 0.309596 0.682065 0.628618
869 1 0.122782 0.747917 0.627159
871 1 0.184198 0.750368 0.685239
870 1 0.184817 0.811787 0.624261
877 1 0.370813 0.752583 0.617807
393 1 0.249537 0.997134 0.742968
518 1 0.187695 0.570715 0.999516
872 1 0.129476 0.809373 0.687519
885 1 0.119419 0.879442 0.616276
874 1 0.306779 0.811541 0.625294
891 1 0.314089 0.880248 0.688572
895 1 0.440889 0.874215 0.680402
887 1 0.185689 0.876178 0.685713
892 1 0.246459 0.936712 0.687257
888 1 0.11925 0.940934 0.686058
890 1 0.31655 0.936429 0.619969
967 1 0.191719 0.501055 0.938888
840 1 0.125164 0.556935 0.685679
329 1 0.252526 0.995443 0.627565
906 1 0.310733 0.557803 0.750292
786 1 0.0566051 0.681477 0.508629
898 1 0.0672286 0.563427 0.746868
848 1 0.369719 0.561004 0.688759
569 1 0.254809 0.87168 0.999808
917 1 0.122072 0.628895 0.743844
914 1 0.0586785 0.690228 0.751266
855 1 0.18549 0.627675 0.693087
859 1 0.308338 0.620002 0.693017
863 1 0.436043 0.62783 0.685545
391 1 0.191191 0.996016 0.807718
856 1 0.118004 0.689422 0.688514
864 1 0.375203 0.688766 0.682251
909 1 0.375218 0.499596 0.753528
930 1 0.0612981 0.808009 0.750884
937 1 0.243969 0.749329 0.746782
875 1 0.310111 0.748008 0.683404
879 1 0.435003 0.754318 0.679686
883 1 0.0615965 0.877997 0.686391
934 1 0.184502 0.816999 0.750473
876 1 0.245739 0.812259 0.68532
880 1 0.370492 0.815609 0.685811
946 1 0.0579063 0.935058 0.750122
953 1 0.249258 0.878615 0.748547
954 1 0.31015 0.93754 0.750126
896 1 0.374156 0.937461 0.686438
1796 1 0.501965 0.564322 0.560523
950 1 0.182138 0.937466 0.745812
325 1 0.124312 0.998716 0.618416