ITEM: TIMESTEP
100000
ITEM: NUMBER OF ATOMS
2048
ITEM: BOX BOUNDS pp pp pp
0.0000000000000000e+00 1.2302095357258066e+01
0.0000000000000000e+00 1.2302095357258066e+01
0.0000000000000000e+00 1.2302095357258066e+01
ITEM: ATOMS id type xs ys zs
620 1 0.480646 0.467965 0.266483
984 1 0.0583017 0.278709 0.276862
209 1 0.399892 0.0665217 0.261147
565 1 0.0633324 0.271392 0.353535
1807 1 0.284429 0.0837732 0.45924
1985 1 0.47142 0.374895 0.0611807
1796 1 0.0498999 0.0738725 0.0384086
1237 1 0.483687 0.120121 0.127959
1187 1 0.0403095 0.29798 0.00610571
1306 1 0.114688 0.288469 0.0932825
1731 1 0.169756 0.472435 0.331975
549 1 0.0402069 0.314088 0.0833013
2017 1 0.424798 0.391831 0.137502
909 1 0.301084 0.214464 0.13265
610 1 0.387914 0.293155 0.0301467
33 1 0.472535 0.455362 0.0627942
1229 1 0.264113 0.291517 0.0688505
195 1 0.241834 0.456762 0.00248417
811 1 0.46848 0.194782 0.100655
240 1 0.453966 0.00164623 0.461289
1026 1 0.449349 0.158248 0.467325
1636 1 0.37241 0.226858 0.368809
1025 1 0.229276 0.0172456 0.460733
1676 1 0.458967 0.0204776 0.378598
894 1 0.352566 0.44312 0.124786
1649 1 0.0353992 0.489625 0.283189
1499 1 0.132544 0.432484 0.103576
85 1 0.288629 0.0245697 0.407667
530 1 0.431497 0.438176 0.206995
453 1 0.480432 0.368311 0.193551
483 1 0.273393 0.46655 0.140866
386 1 0.335906 0.111369 0.0890041
1371 1 0.335845 0.138149 0.160828
243 1 0.112852 0.119202 0.042002
131 1 0.404582 0.501503 0.0706659
651 1 0.2548 0.148034 0.119104
1072 1 0.258469 0.21084 0.0593814
1578 1 0.338513 0.26496 0.0825659
1440 1 0.470714 0.269788 0.0816149
974 1 0.241203 0.462584 0.294876
1590 1 0.118525 0.354463 0.137571
1836 1 0.154295 0.458815 0.493935
1314 1 0.198342 0.415636 0.148543
86 1 0.328507 0.340909 0.0526114
1511 1 0.295392 0.433062 0.0737671
1930 1 0.255616 0.382363 0.0198609
518 1 0.163622 0.36507 0.074481
1054 1 0.405356 0.244443 0.112996
191 1 0.177402 0.409335 0.00736143
1954 1 0.331464 0.411653 0.254762
2016 1 0.383172 0.405865 0.0636597
686 1 0.315091 0.278309 0.00260475
893 1 0.342473 0.381709 0.45241
690 1 0.315936 0.0646192 0.0231877
846 1 0.253154 0.471012 0.446356
1364 1 0.393811 0.0725466 0.020189
1390 1 0.140566 0.0279781 0.320421
900 1 0.419892 0.483516 0.147055
1068 1 0.263829 0.0687163 0.0960934
1748 1 0.484533 0.227716 0.494617
248 1 0.197343 0.103593 0.0685488
560 1 0.0847068 0.464475 0.401027
1299 1 0.327983 0.0627328 0.226886
1263 1 0.0910581 0.195341 0.0933938
1437 1 0.110549 0.104385 0.192264
118 1 0.192541 0.161541 0.162172
820 1 0.461631 0.292725 0.457051
396 1 0.143182 0.235623 0.136973
15 1 0.260416 0.365508 0.100646
1700 1 0.345131 0.189745 0.0525784
569 1 0.0654665 0.254973 0.145557
1142 1 0.283973 0.310078 0.158275
1082 1 0.295797 0.245481 0.203238
1088 1 0.279059 0.00445023 0.273985
1889 1 0.179084 0.349158 0.196005
1182 1 0.397891 0.164903 0.109241
1180 1 0.209139 0.466995 0.0730362
1611 1 0.271466 0.397043 0.180466
2009 1 0.364526 0.449289 0.415841
1982 1 0.405961 0.33075 0.0929116
245 1 0.0241423 0.0389224 0.210543
11 1 0.331863 0.0597755 0.147745
621 1 0.122026 0.0515782 0.1061
882 1 0.22127 0.11729 0.477655
1050 1 0.0855835 0.175481 0.168409
216 1 0.269298 0.218509 0.271528
365 1 0.170626 0.48833 0.149725
1388 1 0.305334 0.501845 0.391663
1860 1 0.129757 0.200893 0.235303
2020 1 0.268074 0.166954 0.196927
1423 1 0.464309 0.0174154 0.242014
1670 1 0.0147137 0.174498 0.131266
1358 1 0.124604 0.292585 0.192699
294 1 0.309762 0.339348 0.222812
906 1 0.221871 0.231243 0.127107
947 1 0.353097 0.215993 0.288381
652 1 0.112694 0.352331 0.244163
1202 1 0.230629 0.301236 0.235076
1433 1 0.467834 0.0456502 0.165027
1865 1 0.193576 0.30779 0.128286
1633 1 0.0490193 0.341363 0.176213
370 1 0.363868 0.273962 0.230497
232 1 0.437756 0.305647 0.162008
523 1 0.279881 0.395251 0.411209
221 1 0.339192 0.365394 0.123037
132 1 0.488952 0.156601 0.381694
444 1 0.371187 0.0210598 0.444234
1405 1 0.407827 0.383811 0.401988
807 1 0.179904 0.0637378 0.169069
513 1 0.401926 0.0818745 0.106506
140 1 0.38889 0.0164217 0.183308
946 1 0.0314319 0.122445 0.215994
438 1 0.376338 0.0262494 0.345685
1301 1 0.259699 0.0897747 0.170936
548 1 0.429799 0.0770422 0.446313
433 1 0.279918 0.462278 0.225412
963 1 0.131617 0.132435 0.121149
1117 1 0.298699 0.132986 0.279478
1298 1 0.104372 0.213034 0.319891
1048 1 0.0672576 0.167527 0.272799
756 1 0.375028 0.14616 0.251836
1046 1 0.151641 0.262978 0.354509
711 1 0.144147 0.26869 0.275818
1067 1 0.0292516 0.208291 0.437543
777 1 0.198558 0.471204 0.230656
1193 1 0.114922 0.329471 0.321273
1780 1 0.333178 0.28887 0.315664
1058 1 0.198506 0.324793 0.00863735
1383 1 0.185622 0.387068 0.48847
705 1 0.301895 0.422087 0.336404
377 1 0.360244 0.298212 0.150709
903 1 0.0541071 0.403087 0.128423
691 1 0.127065 0.422546 0.188532
1665 1 0.230717 0.394419 0.246178
514 1 0.377982 0.355767 0.295046
1781 1 0.391417 0.367169 0.211349
1248 1 0.444563 0.387317 0.265282
1797 1 0.44653 0.131383 0.052975
1080 1 0.243422 0.0316593 0.0249602
1932 1 0.0900975 0.383272 0.056412
592 1 0.362728 0.118804 0.465214
70 1 0.400959 0.333087 0.477573
1920 1 0.295498 0.152645 0.417481
1460 1 0.132368 0.0370017 0.0303582
1566 1 0.0435544 0.0969326 0.114563
1508 1 0.146439 0.1229 0.293829
1775 1 0.0347994 0.404038 0.46118
1648 1 0.0835224 0.0799181 0.260618
241 1 0.253158 0.0775022 0.250125
1870 1 0.20564 0.230833 0.209408
798 1 0.448672 0.172844 0.257736
842 1 0.370115 0.212057 0.175908
1031 1 0.11495 0.318459 0.0206288
1257 1 0.0924563 0.213054 0.395162
1624 1 0.0680082 0.364631 0.373347
1424 1 0.204022 0.140995 0.244296
1811 1 0.0825013 0.23031 0.0287443
1940 1 0.273206 0.339057 0.314584
1292 1 0.457719 0.313232 0.255365
1152 1 0.476969 0.0896702 0.34505
703 1 0.0959254 0.451842 0.312658
1332 1 0.0306678 0.172305 0.0480335
1646 1 0.0581482 0.137674 0.416236
219 1 0.132568 0.246991 0.455021
351 1 0.382108 0.429193 0.333523
767 1 0.148825 0.138168 0.451168
1549 1 0.497213 0.24153 0.163069
1814 1 0.404663 0.103124 0.185895
1842 1 0.479236 0.276787 0.363099
1331 1 0.269351 0.198898 0.349805
1523 1 0.297952 0.271998 0.383834
1543 1 0.180702 0.264667 0.0581706
641 1 0.0788775 0.0164679 0.495681
1469 1 0.15442 0.165364 0.363294
1824 1 0.202538 0.253917 0.415769
746 1 0.398391 0.250853 0.477777
1583 1 0.486222 0.368318 0.400764
1463 1 0.342748 0.0845511 0.396723
1812 1 0.398908 0.116575 0.328419
966 1 0.179716 0.0827258 0.374227
1455 1 0.220762 0.133731 0.331321
553 1 0.189137 0.206422 0.30512
978 1 0.191319 0.331527 0.291696
1914 1 0.408829 0.267911 0.316087
1225 1 0.445926 0.225404 0.410878
215 1 0.247948 0.318638 0.425986
1071 1 0.0110772 0.24906 0.0602459
1454 1 0.345505 0.339579 0.372747
388 1 0.44423 0.342331 0.335805
1658 1 0.407108 0.297258 0.400866
1399 1 0.223632 0.393954 0.33512
500 1 0.0933844 0.0637341 0.391079
1817 1 0.010913 0.327232 0.329148
1166 1 0.181703 0.182555 0.0785575
844 1 0.216275 0.166599 0.412679
677 1 0.191622 0.00922839 0.0776065
845 1 0.208041 0.278328 0.49202
1252 1 0.453271 0.433315 0.456269
298 1 0.0514099 0.0151133 0.311125
418 1 0.338677 0.218344 0.438944
976 1 0.0885086 0.307487 0.420603
254 1 0.0856988 0.127452 0.340903
436 1 0.329317 0.152841 0.346878
1905 1 0.165174 0.323824 0.440966
423 1 0.306673 0.0687703 0.324319
507 1 0.267389 0.367874 0.481416
407 1 0.398398 0.15912 0.406945
1409 1 0.262776 0.216326 0.454407
1287 1 0.436161 0.218199 0.0266632
913 1 0.15851 0.0571714 0.451966
1546 1 0.229115 0.265773 0.343506
5 1 0.195552 0.326836 0.367073
1269 1 0.439646 0.247143 0.217184
133 1 0.121368 0.407522 0.441915
1407 1 0.144617 0.396495 0.36562
1759 1 0.22257 0.00762959 0.20949
322 1 0.227656 0.0560476 0.320593
489 1 0.0512007 0.431645 0.227812
1303 1 0.158978 0.0647823 0.246215
1687 1 0.0719782 0.171983 0.49306
39 1 0.24483 0.460137 0.372595
955 1 0.449715 0.441558 0.367143
1800 1 0.162071 0.406791 0.287127
1684 1 0.00315546 0.446051 0.00521094
940 1 0.261306 0.0912793 0.382622
1098 1 0.27418 0.12992 0.0404337
391 1 0.47546 0.365358 0.497102
1644 1 0.0933706 0.0196555 0.174462
394 1 0.467584 0.0993295 0.228309
1667 1 0.0402519 0.0727232 0.450697
1605 1 0.00290343 0.175092 0.36832
797 1 0.487036 0.0646551 0.0758883
1757 1 0.0289914 0.409975 0.30273
1830 1 0.464358 0.0154062 0.00760369
648 1 0.205239 0.405136 0.415504
1096 1 0.0141592 0.0880066 0.375142
509 1 0.0686933 0.469796 0.483378
452 1 0.430519 0.186846 0.340423
1022 1 0.449969 0.176817 0.176548
832 1 0.00354509 0.023813 0.138812
193 1 0.069788 0.464086 0.0725138
42 1 0.184851 0.196876 0.488439
1138 1 0.32789 0.30391 0.450326
673 1 0.113375 0.486422 0.237273
424 1 0.303664 0.441858 0.498084
835 1 0.0764606 0.476805 0.150059
190 1 0.403619 0.48138 0.27644
1654 1 0.037734 0.229982 0.218166
251 1 0.010549 0.332978 0.442948
1059 1 0.357429 0.464534 0.199177
1952 1 0.00704169 0.363345 0.240873
942 1 0.00834648 0.478157 0.427335
188 1 0.330297 0.492617 0.314671
206 1 0.0463484 -0.000990166 0.061273
1401 1 0.328278 0.0125407 0.0821923
1122 1 0.15054 0.496289 0.421191
362 1 0.155447 0.00213256 0.394356
704 1 0.213533 0.174588 0.00660647
376 1 0.0924838 0.444983 -0.000610767
1734 1 0.251545 0.460125 0.607036
1949 1 0.092883 0.0221938 0.912414
990 1 0.0162797 0.170004 0.673713
1336 1 0.194645 0.076225 0.60948
425 1 0.0493244 0.223187 0.618152
1651 1 0.329067 0.107781 0.557628
713 1 0.383304 0.481973 0.855024
218 1 0.380655 0.0663379 0.592686
1373 1 0.0374976 0.00755776 0.713004
1673 1 0.381242 0.0249387 0.8768
1413 1 0.105311 0.102255 0.515357
1397 1 0.190885 0.183853 0.604555
754 1 0.242708 0.192148 0.542739
469 1 0.419683 0.3335 0.895293
1369 1 0.379879 0.198196 0.540657
281 1 0.124475 0.189964 0.562575
551 1 0.206655 0.328698 0.560512
28 1 0.0352133 0.354316 0.590258
101 1 0.363091 0.274167 0.554114
1403 1 0.443472 0.270753 0.858302
961 1 0.0904944 0.411282 0.605255
220 1 0.373603 0.49448 0.727056
1137 1 0.32736 0.383783 0.606826
1909 1 0.174358 0.49133 0.581735
1538 1 0.0446709 0.342047 0.67339
817 1 0.391618 0.454772 0.619882
1884 1 0.450997 0.410265 0.57017
1749 1 0.391402 0.0585185 0.512282
1482 1 0.0586166 0.0699346 0.572824
1968 1 0.261895 0.0505495 0.524826
1430 1 0.126772 0.197282 0.644292
1365 1 0.487418 0.0947337 0.505196
1378 1 0.00415292 0.0669235 0.927991
1917 1 0.00981555 0.289602 0.625511
174 1 0.253013 0.243513 0.600232
504 1 0.457643 0.0972618 0.605848
1471 1 0.0748163 0.29179 0.572151
1108 1 0.200663 0.348255 0.653587
927 1 0.309653 0.178908 0.588736
1235 1 0.12076 0.121076 0.605316
1615 1 0.47068 0.330031 0.683171
1321 1 0.46263 0.191502 0.577431
1416 1 0.143887 0.32061 0.607236
550 1 0.330139 0.254369 0.619992
1839 1 0.479168 0.211306 0.794568
1352 1 0.27172 0.320222 0.621649
1446 1 0.440369 0.283282 0.540531
1607 1 0.31445 0.450354 0.651454
685 1 0.0927045 0.469132 0.554086
1343 1 0.0575571 0.250205 0.507516
1791 1 0.264644 0.0460176 0.955877
960 1 0.230509 0.254655 0.99624
1938 1 0.176945 0.0535047 0.533978
186 1 0.40654 0.403488 0.859006
1747 1 0.450918 0.248944 0.938895
1380 1 0.115437 0.31525 0.946207
1575 1 0.31939 0.135647 0.662714
679 1 0.464695 0.031179 0.643259
1305 1 0.0340108 0.431271 0.937392
1061 1 0.161489 0.0647054 0.700232
1939 1 0.254212 0.116454 0.571982
1609 1 0.153293 0.294215 0.71874
1109 1 0.181575 0.143761 0.680938
1140 1 0.422743 0.131548 0.539313
1899 1 0.174952 0.254497 0.56127
926 1 0.476168 0.365848 0.774867
1750 1 0.305643 0.0467142 0.886146
1693 1 0.0910588 0.276221 0.657109
1598 1 0.274621 0.295108 0.538573
583 1 0.405234 0.229445 0.619831
1821 1 0.120533 0.0813091 0.962175
519 1 0.0957341 0.430078 0.712096
696 1 0.175384 0.404182 0.574851
892 1 0.26084 0.386216 0.563485
1706 1 0.188341 0.259458 0.639461
181 1 0.41099 0.378236 0.649659
1476 1 0.240602 0.215172 0.922298
1810 1 0.227246 0.452453 0.522961
533 1 0.201991 0.0882667 0.972445
75 1 0.486028 0.450641 0.82401
607 1 0.39542 0.356919 0.579078
1881 1 0.330522 0.346978 0.528488
730 1 0.343413 0.402391 0.707663
574 1 0.0994209 0.0384484 0.836604
319 1 0.389288 0.403116 0.514551
22 1 0.119912 0.0365622 0.635093
456 1 0.167325 0.423183 0.650499
623 1 0.450643 0.388692 0.949262
25 1 0.454664 0.0612313 0.773606
591 1 0.362848 0.203889 0.678433
675 1 0.363424 0.135985 0.733532
1410 1 0.014481 0.119454 0.509763
1798 1 0.103953 0.124293 0.690746
717 1 0.192187 0.133159 0.844224
161 1 0.385964 0.14943 0.607262
1009 1 0.398658 0.0956713 0.663075
1999 1 0.0393419 0.459107 0.779815
114 1 0.475009 0.250608 0.680059
803 1 0.2537 0.186125 0.653662
1910 1 0.201384 0.45648 0.926654
1880 1 0.0651174 0.295575 0.731427
1919 1 0.124686 0.359841 0.67055
1348 1 0.290376 0.254592 0.688132
710 1 0.177923 0.253683 0.783183
211 1 0.064625 0.255264 0.863293
1043 1 0.20101 0.386429 0.725282
836 1 0.105121 0.304692 0.805913
1599 1 0.329305 0.301526 0.735685
1873 1 0.447131 0.462217 0.91226
847 1 0.117731 0.367309 0.758599
793 1 0.400581 0.343629 0.7284
1157 1 0.254407 0.0300679 0.598315
270 1 0.166424 0.46079 0.729573
787 1 0.470814 0.305622 0.98584
1384 1 0.366202 0.301546 0.948139
200 1 0.418094 0.434015 0.787384
1077 1 0.438094 0.41687 0.711896
1580 1 0.295507 0.154931 0.501345
928 1 0.179229 0.130787 0.546127
1657 1 0.114573 0.132622 0.824125
632 1 0.237748 0.081457 0.684936
1062 1 0.421145 0.13441 0.790348
989 1 0.0192882 0.101671 0.741341
1907 1 0.104207 0.168715 0.891784
285 1 0.269524 0.158786 0.727817
474 1 0.434494 0.174254 0.670713
274 1 0.488133 0.100007 0.909379
1014 1 0.002484 0.249829 0.69519
2001 1 0.156161 0.175798 0.769649
159 1 0.228229 0.183593 0.795096
602 1 0.205055 0.224107 0.71669
1439 1 0.0546624 0.37303 0.833023
1330 1 0.195621 0.331674 0.807682
1165 1 0.294989 0.30579 0.818708
1754 1 0.351177 0.332072 0.662637
2026 1 0.459338 0.0324167 0.563296
1799 1 0.491625 0.133884 0.83204
1260 1 0.271049 0.382039 0.675927
1829 1 0.38691 0.0514404 0.732777
1774 1 0.0194988 0.0111129 0.853798
175 1 0.230244 0.466048 0.683052
1190 1 0.0444423 0.38244 0.747506
1450 1 0.167399 0.0668655 0.803891
330 1 0.479189 0.369927 0.852962
229 1 0.139517 0.00623463 0.759779
1438 1 0.239883 0.0191669 0.835147
1414 1 0.436552 0.0791275 0.853852
432 1 0.0614937 0.104658 0.893156
1660 1 0.296712 0.0852362 0.733847
912 1 0.4661 0.128144 0.732481
2041 1 0.345708 0.474747 0.928651
748 1 0.0913204 0.0720008 0.765776
1286 1 0.218542 0.108803 0.765445
1017 1 0.340513 0.0742543 0.947487
731 1 0.191565 0.149564 0.923844
520 1 0.267775 0.0939912 0.829457
1957 1 0.155211 0.233715 0.969708
596 1 0.140713 0.281512 0.873069
753 1 0.394501 0.274463 0.695288
980 1 0.329797 0.208706 0.75413
988 1 0.238703 0.027074 0.751216
368 1 0.194604 0.410535 0.798015
744 1 0.338084 0.36385 0.777667
1452 1 0.0877331 0.230802 0.93611
1086 1 0.110198 0.435717 0.789696
84 1 0.297238 0.462033 0.728461
1724 1 0.359989 0.266964 0.798904
336 1 0.416015 0.477946 0.512673
586 1 0.117115 0.396058 0.527138
40 1 0.38916 0.0142689 0.666713
1233 1 0.457406 0.293573 0.763795
1313 1 0.314307 0.353528 0.967843
1070 1 0.0338607 0.28919 0.926735
1789 1 0.0111036 0.303098 0.818942
1004 1 0.0212353 0.446902 0.638435
1584 1 0.473848 0.434956 0.642974
1074 1 0.061193 0.333269 0.501803
360 1 0.495403 0.314129 0.909297
295 1 0.258774 0.160994 0.866976
1761 1 0.354989 0.0768809 0.808761
1705 1 0.110841 0.211638 0.817808
1894 1 0.127901 0.156971 0.969582
1790 1 0.325106 0.180921 0.913605
1132 1 0.433784 0.157049 0.974241
953 1 0.429558 0.299129 0.625258
378 1 0.259129 0.25562 0.776497
1929 1 0.299242 0.225821 0.848638
933 1 0.441424 0.179327 0.889807
1291 1 0.136005 0.36814 0.850386
1040 1 0.235064 0.306418 0.718065
1475 1 0.389723 0.194519 0.83101
427 1 0.417463 0.0743293 0.937265
608 1 0.396587 0.365089 0.999423
1251 1 0.265948 0.398157 0.813018
568 1 0.366775 0.401321 0.930047
1220 1 0.0819082 0.440341 0.876873
1123 1 0.286082 0.431703 0.910438
1049 1 0.402729 0.335162 0.812744
1890 1 0.236029 0.467971 0.855237
1318 1 0.126405 0.480661 0.935784
1962 1 0.0248241 0.141522 0.590244
1643 1 0.126533 0.39659 0.938212
43 1 0.00881729 0.463355 0.857176
886 1 0.297213 0.277756 0.923385
695 1 0.0383733 0.080978 0.658643
1958 1 0.351782 0.113553 0.879548
760 1 0.338163 0.430997 0.996642
829 1 0.372499 0.205914 0.971939
119 1 0.0615206 0.0206757 0.981584
806 1 0.225489 0.0699662 0.892935
128 1 0.265707 0.133159 0.953701
1192 1 0.321057 0.475459 0.570152
10 1 0.0291212 0.181116 0.831406
1212 1 0.320562 0.145905 0.809657
415 1 0.0612145 0.361673 0.907599
1694 1 0.231426 0.272025 0.856789
796 1 0.175424 0.208896 0.873628
329 1 0.354537 0.301257 0.869291
1245 1 0.0586654 0.371353 0.987054
664 1 0.203165 0.299387 0.926618
2030 1 0.338176 0.436969 0.801444
282 1 0.209153 0.385914 0.868177
1168 1 0.217504 0.384497 0.94419
1680 1 0.271308 0.346011 0.900163
183 1 0.379203 0.233257 0.902925
1893 1 0.157624 0.453369 0.8512
18 1 0.0461279 0.23548 0.784297
562 1 0.331701 0.380461 0.85874
611 1 0.0343781 0.0803351 0.820495
3 1 0.324638 0.0537913 0.654442
74 1 0.432661 0.493854 0.676949
1385 1 0.107641 0.230252 0.721483
1804 1 0.41389 0.218753 0.756551
649 1 0.176065 0.018086 0.941088
732 1 0.402518 0.0055677 0.800127
719 1 0.0303629 0.180154 0.91421
1228 1 0.132835 0.314858 0.521065
1959 1 0.0540576 0.122837 0.981161
1828 1 0.0733688 0.1588 0.755117
595 1 0.292801 0.206412 0.982323
312 1 0.411528 0.456722 0.998636
1768 1 0.311034 0.230582 0.516248
1613 1 0.233076 0.479204 0.770385
71 1 0.149354 0.0788974 0.888102
1859 1 0.492302 0.458628 0.985467
1215 1 0.334267 0.135101 0.995718
1987 1 0.0356009 0.420547 0.543271
1758 1 0.307899 0.0159571 0.786999
1726 1 0.11948 0.00282349 0.562638
58 1 0.479722 0.0911386 0.985502
991 1 0.00355061 0.228174 0.974837
1616 1 0.497336 0.266509 0.603607
1588 1 0.497549 0.0178542 0.926427
256 1 0.355125 0.719865 0.0219984
561 1 0.375005 0.912461 0.47467
697 1 0.460435 0.678344 0.206941
1374 1 0.304301 0.980249 0.3418
1572 1 0.482347 0.667274 0.438341
2034 1 0.477945 0.589706 0.463805
341 1 0.331672 0.533533 0.162063
97 1 0.441309 0.660951 0.0616006
1230 1 0.274312 0.937752 0.0484811
1315 1 0.367163 0.794555 0.0481551
671 1 0.0127516 0.514761 0.207512
1763 1 0.0763267 0.536513 0.439133
572 1 0.211286 0.538841 0.409679
1551 1 0.493539 0.711312 0.128208
1195 1 0.149782 0.983123 0.48593
1521 1 0.12864 0.528153 0.00597567
2048 1 0.254756 0.530902 0.10052
1576 1 0.3065 0.761982 0.19548
615 1 0.0710173 0.922542 0.0584395
881 1 0.339013 0.840589 0.105684
538 1 0.446088 0.84033 0.18607
1296 1 0.485858 0.636665 0.138101
292 1 0.00769816 0.953459 0.209423
1849 1 0.0826149 0.790917 0.339469
1555 1 0.203091 0.977873 0.282184
1302 1 0.196725 0.525954 0.488594
283 1 0.128777 0.599939 0.0582952
656 1 0.327563 0.928066 0.111602
850 1 0.387348 0.634813 0.22868
831 1 0.32763 0.515949 0.071271
172 1 0.0386916 0.538581 0.128304
937 1 0.265458 0.864966 0.0915947
1312 1 0.280961 0.60857 0.103337
1971 1 0.0547535 0.784321 0.0272628
1350 1 0.0937447 0.84748 0.0607365
1362 1 0.0341204 0.572493 0.287806
158 1 0.275205 0.685392 0.083003
1497 1 0.173539 0.968213 0.155862
1779 1 0.176543 0.85088 0.0628703
1379 1 0.467052 0.9299 0.0538009
485 1 0.0460843 0.700683 0.448953
429 1 0.00190867 0.754444 0.330878
1622 1 0.086472 0.710956 0.000920032
1898 1 0.406602 0.587202 0.0706443
1885 1 0.215815 0.786689 0.0419636
1069 1 0.187673 0.803535 0.126282
563 1 0.286825 0.87262 0.165889
1861 1 0.340075 0.637061 0.368161
1503 1 0.0437987 0.588657 0.060894
709 1 0.117764 0.532725 0.0985266
1169 1 0.331191 0.591396 0.0440372
1243 1 0.500349 0.895117 0.203308
768 1 0.411438 0.661294 0.138962
728 1 0.355055 0.663293 0.0825111
1711 1 0.389492 0.978136 0.0422209
571 1 0.407747 0.92149 0.251964
51 1 0.00417074 0.893205 0.277624
1843 1 0.484238 0.850831 0.0580154
1105 1 0.460941 0.600563 0.220211
827 1 0.136618 0.699904 0.121905
78 1 0.345639 0.619203 0.153304
815 1 0.319533 0.858493 0.0293977
970 1 0.339615 0.765048 0.462365
1333 1 0.203923 0.725981 0.0909744
1653 1 0.205553 0.640987 0.100174
201 1 0.363801 0.718293 0.168156
107 1 0.447329 0.705813 0.366679
724 1 0.125865 0.91232 0.197999
929 1 0.208439 0.661278 0.17374
1769 1 0.430917 0.757532 0.0860783
1224 1 0.0816959 0.7148 0.371354
335 1 0.0237365 0.768477 0.412129
1713 1 0.435758 0.551378 0.296946
2037 1 0.0218341 0.638036 0.00821065
943 1 0.430679 0.983033 0.308349
1090 1 0.112903 0.819451 0.152078
1699 1 0.267065 0.770629 0.109635
1594 1 0.33909 0.738271 0.0960539
1183 1 0.0672895 0.737887 0.0878001
1556 1 0.246476 0.929336 0.209689
678 1 0.237352 0.862473 0.479701
924 1 0.459515 0.912113 0.432188
1720 1 0.0440884 0.95433 0.136007
2000 1 0.0763322 0.662026 0.246376
1886 1 0.204204 0.604637 0.227027
1533 1 0.376162 0.553379 0.228928
395 1 0.414213 0.583553 0.163168
778 1 0.200387 0.57343 0.143077
1897 1 0.37822 0.672892 0.2989
1458 1 0.408093 0.961109 0.39794
1567 1 0.0778977 0.605607 0.140397
810 1 0.0675397 0.724696 0.17063
1073 1 0.17073 0.665549 0.0291892
1304 1 0.301958 0.717012 0.258079
47 1 0.486791 0.565808 0.386942
473 1 0.00320873 0.845137 0.0518611
1540 1 0.123808 0.651426 0.183993
1354 1 0.1365 0.721074 0.213726
1738 1 0.444687 0.759256 0.167477
1730 1 0.370984 0.796606 0.168247
1084 1 0.359921 0.941206 0.190842
1819 1 0.191225 0.924822 0.362864
981 1 0.119348 0.839551 0.254612
1480 1 0.219343 0.731298 0.206433
1247 1 0.349315 0.791804 0.270101
1356 1 0.0166276 0.892981 0.449175
1178 1 0.2744 0.852661 0.249497
1016 1 0.349465 0.866618 0.227187
310 1 0.204723 0.925684 0.0900724
699 1 0.314555 0.567373 0.49813
163 1 0.0987721 0.952771 0.352572
94 1 0.358669 0.507186 0.470134
741 1 0.0464129 0.582236 0.212554
868 1 0.0542277 0.544231 0.364913
361 1 0.243154 0.523082 0.188465
944 1 0.28561 0.609591 0.317536
1563 1 0.406639 0.812818 0.458893
1066 1 0.0378477 0.78814 0.135366
238 1 0.0958023 0.621391 0.313009
461 1 0.113725 0.540866 0.180913
1419 1 0.424376 0.836856 0.114076
1545 1 0.0988459 0.738193 0.279604
475 1 0.119648 0.593686 0.241374
1149 1 0.452464 0.650906 0.284109
36 1 0.158764 0.658659 0.266458
26 1 0.164592 0.800356 0.207982
1000 1 0.240837 0.805072 0.192064
1969 1 0.235549 0.671126 0.262679
93 1 0.45991 0.776331 0.250716
721 1 0.0341173 0.817922 0.285206
861 1 0.198476 0.819188 0.326428
2012 1 0.24901 0.779872 0.277205
1126 1 0.311913 0.745624 0.332277
639 1 0.416408 0.839615 0.259533
1176 1 0.0527279 0.873082 0.123075
683 1 0.302456 0.849502 0.438329
37 1 0.276308 0.694215 0.162468
2013 1 0.398618 0.757853 0.323093
1241 1 0.0117916 0.976116 0.478766
465 1 0.054012 0.885443 0.383777
931 1 0.254901 0.610332 0.029558
1524 1 0.485445 0.896804 0.126681
1406 1 0.487081 0.83003 0.431131
443 1 0.132296 0.888971 0.116938
1444 1 0.0196927 0.653046 0.173252
1752 1 0.469252 0.557008 0.112986
1163 1 0.430318 0.609289 0.351809
896 1 0.0099934 0.827549 0.360329
891 1 0.196842 0.593521 0.334482
1632 1 0.437854 0.782764 0.387916
1753 1 0.24478 0.670003 0.341656
1945 1 0.310344 0.634551 0.248652
788 1 0.401453 0.660239 0.411505
1878 1 0.44671 0.519777 0.214464
1473 1 0.128353 0.850306 0.352224
609 1 0.272749 0.61626 0.179168
60 1 0.228277 0.749644 0.354545
1372 1 0.0369347 0.861984 0.212653
2008 1 0.261383 0.785078 0.4758
1735 1 0.498965 0.792612 0.116725
1175 1 0.154761 0.916999 0.291518
702 1 0.292342 0.833559 0.32455
288 1 0.326765 0.895892 0.371969
700 1 0.198743 0.885181 0.157583
897 1 0.192142 0.867377 0.243058
1935 1 0.238144 0.903312 0.297741
340 1 0.324889 0.957337 0.423874
1340 1 0.23322 0.591801 0.477622
1079 1 0.410103 0.908684 0.140234
116 1 0.239625 0.877946 0.0146166
761 1 0.201859 0.5342 0.278172
1874 1 0.0347193 0.619556 0.387234
67 1 0.112398 0.644473 0.400839
1831 1 0.288381 0.58093 0.395927
327 1 0.484263 0.954245 0.351142
61 1 0.122611 0.534426 0.310694
380 1 0.007474 0.945228 0.00802498
682 1 0.366879 0.57286 0.323601
1259 1 0.101932 0.762117 0.444252
1498 1 0.0811068 0.785979 0.214885
1688 1 0.287953 0.645852 0.43651
1996 1 0.179901 0.736168 0.276304
830 1 0.132565 0.983715 0.247033
125 1 0.408609 0.734826 0.449228
268 1 0.251935 0.714737 0.43285
1294 1 0.406187 0.720621 0.239966
356 1 0.076235 0.888519 0.307454
304 1 0.159712 0.677331 0.343798
267 1 0.228978 0.995475 0.365009
428 1 0.46965 0.773822 0.485606
1194 1 0.430869 0.981494 0.107758
59 1 0.466655 0.826736 0.325743
597 1 0.381762 0.84286 0.330819
1206 1 0.292635 0.78232 0.0365493
1740 1 0.251152 0.935216 0.408652
100 1 0.373449 0.933091 0.324004
352 1 0.363824 0.991844 0.25276
217 1 0.12711 0.574696 0.379216
1223 1 0.376362 0.570994 0.413251
1106 1 0.258053 0.5292 0.335165
979 1 0.383392 0.644892 0.0102846
1739 1 0.172909 0.693495 0.434855
506 1 0.215986 0.623738 0.405833
81 1 0.443995 0.957237 0.194485
1620 1 0.116263 0.665718 0.485226
180 1 0.280952 0.540008 0.257985
1863 1 0.134624 0.778904 0.071993
1766 1 0.147571 0.753568 0.375212
781 1 0.154496 0.58928 0.466418
1021 1 0.36911 0.622898 0.473054
521 1 0.49646 0.510317 0.335122
529 1 0.194458 0.767464 0.439833
1542 1 0.273266 0.939457 0.486609
1529 1 0.24347 0.854637 0.387695
1683 1 0.045057 0.995888 0.412367
566 1 0.332791 0.715232 0.402083
1119 1 0.0853419 0.934644 0.430887
1199 1 0.120596 0.882412 0.488728
290 1 0.399358 0.87396 0.407571
1141 1 0.260668 0.531137 0.0237628
670 1 0.284135 0.78065 0.398568
828 1 0.0684074 0.947755 0.258518
1645 1 0.123682 0.974685 0.0877915
1346 1 0.17638 0.909135 0.44064
878 1 0.0577855 0.609434 0.462215
1642 1 0.0666648 0.829809 0.449933
1297 1 0.298527 0.994433 0.192495
874 1 0.237698 0.707559 0.018179
1554 1 0.440011 0.511199 0.437354
1535 1 0.0394808 0.685967 0.307214
919 1 0.397236 0.879737 0.0580091
1913 1 0.147332 0.823661 0.425856
784 1 0.253065 0.996179 0.125941
805 1 0.400936 0.506016 0.354385
1635 1 0.0187524 0.939471 0.340327
1722 1 0.313013 0.926945 0.249947
1359 1 0.497068 0.74757 0.0479408
1931 1 0.0229968 0.719337 0.235359
526 1 0.360429 0.795737 0.387158
1466 1 0.186181 0.546819 0.0587417
1729 1 0.0103099 0.717285 0.0194654
77 1 0.472386 0.900843 0.293564
935 1 0.0747809 0.659755 0.0799942
1386 1 0.157265 0.729865 0.499253
385 1 0.395543 0.528935 0.586338
1514 1 0.166005 0.68883 0.951785
646 1 0.360984 0.522509 0.655528
1003 1 0.206761 0.527813 0.649251
1539 1 0.490854 0.659974 0.595611
1189 1 0.257664 0.71463 0.523681
1496 1 0.130542 0.675292 0.56603
347 1 0.330362 0.728056 0.56467
742 1 0.190545 0.953999 0.777656
1970 1 0.0211153 0.852923 0.787282
121 1 0.275278 0.641118 0.522891
635 1 0.219468 0.667597 0.588205
1515 1 0.306784 0.558921 0.588943
2018 1 0.00834719 0.879866 0.60454
316 1 0.167844 0.813472 0.517886
1128 1 0.459098 0.627131 0.658953
1167 1 0.073716 0.976724 0.788066
1211 1 0.103334 0.6326 0.986237
1601 1 0.299082 0.914527 0.976262
1871 1 0.480407 0.884355 0.722753
1404 1 0.468155 0.726677 0.558974
707 1 0.308904 0.594939 0.803196
1717 1 0.0907382 0.832219 0.539809
471 1 0.248936 0.562037 0.900224
1983 1 0.143145 0.957522 0.915343
809 1 0.300489 0.919859 0.659897
1151 1 0.474745 0.858743 0.917712
199 1 0.0413947 0.681153 0.942089
328 1 0.418705 0.986644 0.941704
343 1 0.131745 0.89046 0.988105
1172 1 0.00501034 0.931795 0.735243
1745 1 0.403463 0.677898 0.593516
1827 1 0.454913 0.828065 0.781265
1130 1 0.0583529 0.69629 0.529149
484 1 0.168418 0.591213 0.545864
1528 1 0.188958 0.712594 0.657955
1268 1 0.402232 0.794425 0.633651
687 1 0.151765 0.756201 0.99057
1911 1 0.31421 0.666888 0.610247
477 1 0.0715163 0.970105 0.623154
113 1 0.467666 0.88898 0.83733
499 1 0.258324 0.830157 0.95398
1864 1 0.152273 0.83952 0.592751
1773 1 0.00554013 0.622431 0.517831
1805 1 0.462441 0.804388 0.576119
606 1 0.0304951 0.994867 0.55465
1394 1 0.0305898 0.888698 0.889755
338 1 0.3392 0.963314 0.716677
864 1 0.26166 0.971868 0.929214
1591 1 0.279135 0.873353 0.596457
64 1 0.43999 0.989307 0.724549
930 1 0.387665 0.846997 0.549577
1723 1 0.195601 0.905337 0.946892
301 1 0.323878 0.516493 0.800423
1876 1 0.00455504 0.744741 0.916249
271 1 0.0877334 0.580869 0.696221
1389 1 0.0472411 0.63279 0.749248
594 1 0.112295 0.558477 0.58827
889 1 0.436546 0.907245 0.575788
27 1 0.0664034 0.565691 0.790415
1560 1 0.236324 0.591697 0.612815
762 1 0.305703 0.602697 0.652132
771 1 0.378512 0.597687 0.625741
1201 1 0.242781 0.527878 0.554534
1767 1 0.0874652 0.705863 0.621904
379 1 0.375654 0.604518 0.9334
1617 1 0.0334129 0.772373 0.584098
1522 1 0.10962 0.75646 0.563989
1984 1 0.475199 0.757432 0.641929
112 1 0.306206 0.572531 0.968738
1943 1 0.263391 0.756187 0.682161
1600 1 0.352753 0.730931 0.642758
1925 1 0.453111 0.603356 0.919294
1587 1 0.0882081 0.900656 0.589047
1569 1 0.134424 0.767755 0.641696
366 1 0.207643 0.80527 0.638427
1778 1 0.437814 0.60016 0.58027
1585 1 0.0821982 0.903402 0.760256
393 1 0.132809 0.842032 0.682824
517 1 0.353334 0.858993 0.619906
505 1 0.0112335 0.695891 0.802309
1708 1 0.0450376 0.549762 0.528702
870 1 0.176148 0.542935 0.875353
421 1 0.340425 0.559935 0.722128
1715 1 0.362481 0.528194 0.997418
1145 1 0.204831 0.61018 0.693026
1457 1 0.243141 0.545058 0.727936
1640 1 0.357929 0.655392 0.688542
2010 1 0.0192459 0.606848 0.670969
1537 1 0.338677 0.68853 0.758714
103 1 0.0239132 0.580533 0.598105
1271 1 0.267179 0.672938 0.672805
55 1 0.269408 0.712532 0.745906
1097 1 0.418203 0.720352 0.681839
802 1 0.056706 0.76416 0.66618
1981 1 0.270077 0.797771 0.770298
1102 1 0.243827 0.794039 0.558918
410 1 0.161473 0.625296 0.619132
1834 1 0.482201 0.735063 0.729973
1771 1 0.276229 0.838864 0.670787
555 1 0.236584 0.907343 0.718602
1509 1 0.394001 0.765467 0.517929
284 1 0.0640179 0.821192 0.726699
871 1 0.210548 0.961922 0.999636
1582 1 0.316827 0.792552 0.610013
1733 1 0.48282 0.808038 0.706896
20 1 0.059905 0.900717 0.680505
9 1 0.0392734 0.740238 0.739088
1858 1 0.207723 0.930772 0.863944
430 1 0.0182975 0.63931 0.87619
124 1 0.139692 0.706487 0.863631
918 1 0.193677 0.739469 0.570408
708 1 0.470846 0.586288 0.758127
1200 1 0.0503289 0.811378 0.886751
1818 1 0.0191663 0.663695 0.591995
446 1 0.371949 0.945529 0.634791
712 1 0.0412658 0.687163 0.683936
1226 1 0.241072 0.543593 0.825067
1065 1 0.277974 0.624425 0.735307
2033 1 0.0513067 0.516208 0.996781
1139 1 0.0517876 0.509061 0.914945
486 1 0.0804652 0.628604 0.632471
224 1 0.0591089 0.939691 0.938792
743 1 0.199354 0.678016 0.738264
920 1 0.4059 0.769108 0.794339
1833 1 0.0424146 0.872916 0.977557
1610 1 0.0688598 0.792981 0.802726