LAMMPS (15 Sep 2022)
WARNING: Using I/O redirection is unreliable with parallel runs. Better use -in switch to read input file. (src/lammps.cpp:527)
OMP_NUM_THREADS environment is not set. Defaulting to 1 thread. (src/comm.cpp:98)
  using 1 OpenMP thread(s) per MPI task
