
include ${pot}.lmp
include kalj.lmp
units lj
atom_style atomic

variable dimensions equal 3
variable density equal 1.2
variable fraca equal 0.8

dimension ${dimensions}
dimension 3
read_restart ${prevbasename}.final.lmprestart.${steps}
read_restart equil/kalj_T1.5_n360_v300_10000_1.final.lmprestart.${steps}
read_restart equil/kalj_T1.5_n360_v300_10000_1.final.lmprestart.10000
Reading restart file ...
  restart file = 15 Sep 2022, LAMMPS = 15 Sep 2022
WARNING: Restart file used different # of processors: 1 vs. 4 (src/read_restart.cpp:659)
  restoring atom style atomic from restart
  orthogonal box = (0 0 0) to (6.6943295 6.6943295 6.6943295)
  1 by 2 by 2 MPI processor grid
  restoring pair style lj/cut from restart
  360 atoms
  read_restart CPU = 0.041 seconds
include ${pot}_particles.lmp
include kalj_particles.lmp
mass * 1.0 #  set mass 1.0 for all types

pair_style lj/cut 2.5
#pair coeffs type1 type2 eps sigma
pair_coeff 1 1 1.0 1.00 2.5
pair_coeff 1 2 1.5 0.80 2.0
pair_coeff 2 2 0.5 0.88 2.2
pair_modify shift yes
reset_timestep 0

print "Setting up equilibration run"
Setting up equilibration run
variable dumptime2 equal ${steps}/2000
variable dumptime2 equal 10000/2000
dump 1 all dcd ${dumptime2} ${basename}.unwrap.dcd
dump 1 all dcd 5 ${basename}.unwrap.dcd
dump 1 all dcd 5 prod/kalj_T1.5_n360_v300_prod_10000_1.unwrap.dcd
#dump 2 all dcd ${dumptime2} ${basename}.dcd
dump_modify 1 unwrap yes
#dump_modify 2 unwrap no

restart ${restarttime} ${basename}.restart
restart 10000 ${basename}.restart
restart 10000 prod/kalj_T1.5_n360_v300_prod_10000_1.restart
restart ${steps} ${basename}.final.lmprestart
restart 10000 ${basename}.final.lmprestart
restart 10000 prod/kalj_T1.5_n360_v300_prod_10000_1.final.lmprestart

thermo ${thermotime}
thermo 1000
timestep ${timestep}
timestep 0.002

neighbor 0.5 bin
neigh_modify every 1 delay ${neighborstep} check yes
neigh_modify every 1 delay 20 check yes

#velocity all create ${temp} ${id} dist gaussian
fix 1 all nvt temp ${temp} ${temp} ${taut}
fix 1 all nvt temp 1.5 ${temp} ${taut}
fix 1 all nvt temp 1.5 1.5 ${taut}
fix 1 all nvt temp 1.5 1.5 0.2
Resetting global fix info from restart file:
  fix style: nvt, fix ID: 1

variable steps4 equal ${steps}/4
variable steps4 equal 10000/4
run ${steps4}
run 2500
Generated 0 of 1 mixed pair_coeff terms from geometric mixing rule
All restart file global fix info was re-assigned
Neighbor list info ...
  update: every = 1 steps, delay = 20 steps, check = yes
  max neighbors/atom: 2000, page size: 100000
  master list distance cutoff = 3
  ghost atom cutoff = 3
  binsize = 1.5, bins = 5 5 5
  1 neighbor lists, perpetual/occasional/extra = 1 0 0
  (1) pair lj/cut, perpetual
      attributes: half, newton on
      pair build: half/bin/atomonly/newton
      stencil: half/bin/3d
      bin: standard
Per MPI rank memory allocation (min/avg/max) = 3.137 | 3.138 | 3.138 Mbytes
   Step          Temp          E_pair         E_mol          TotEng         Press     
         0   1.3843166     -5.4023665      0             -3.3316597      14.179666    
      1000   1.5410538     -5.2413152      0             -2.9361556      15.102784    
      2000   1.6050708     -5.1565424      0             -2.755624       15.99753     
      2500   1.5240578     -5.2176959      0             -2.9379596      15.265001    
Loop time of 0.283992 on 4 procs for 2500 steps with 360 atoms

Performance: 1521170.267 tau/day, 8803.069 timesteps/s, 3.169 Matom-step/s
99.2% CPU use with 4 MPI tasks x 1 OpenMP threads

MPI task timing breakdown:
Section |  min time  |  avg time  |  max time  |%varavg| %total
---------------------------------------------------------------
Pair    | 0.13006    | 0.13284    | 0.13603    |   0.6 | 46.78
Neigh   | 0.014127   | 0.014537   | 0.015083   |   0.3 |  5.12
Comm    | 0.092492   | 0.099084   | 0.10338    |   1.3 | 34.89
Output  | 0.015716   | 0.019751   | 0.026732   |   3.0 |  6.95
Modify  | 0.010067   | 0.011866   | 0.013318   |   1.1 |  4.18
Other   |            | 0.005912   |            |       |  2.08

Nlocal:             90 ave          95 max          83 min
Histogram: 1 0 0 0 0 1 0 0 1 1
Nghost:           1234 ave        1247 max        1215 min
Histogram: 1 0 0 0 1 0 0 0 0 2
Neighs:           5201 ave        5434 max        4756 min
Histogram: 1 0 0 0 0 0 0 1 1 1

Total # of neighbors = 20804
Ave neighs/atom = 57.788889
Neighbor list builds = 85
Dangerous builds = 0
Total wall time: 0:00:00
