
include ${pot}.lmp
include kalj.lmp
units lj
atom_style atomic

variable dimensions equal 3
variable density equal 1.2
variable fraca equal 0.8

dimension ${dimensions}
dimension 3
read_restart ${prevbasename}.final.lmprestart.${steps}
read_restart equil/kalj_T0.6_n360_v300_1000000_1.final.lmprestart.${steps}
read_restart equil/kalj_T0.6_n360_v300_1000000_1.final.lmprestart.1000000
Reading restart file ...
  restart file = 15 Sep 2022, LAMMPS = 15 Sep 2022
WARNING: Restart file used different # of processors: 1 vs. 4 (src/read_restart.cpp:659)
  restoring atom style atomic from restart
  orthogonal box = (0 0 0) to (6.6943295 6.6943295 6.6943295)
  1 by 2 by 2 MPI processor grid
  restoring pair style lj/cut from restart
  360 atoms
  read_restart CPU = 0.035 seconds
include ${pot}_particles.lmp
include kalj_particles.lmp
mass * 1.0 #  set mass 1.0 for all types

pair_style lj/cut 2.5
#pair coeffs type1 type2 eps sigma
pair_coeff 1 1 1.0 1.00 2.5
pair_coeff 1 2 1.5 0.80 2.0
pair_coeff 2 2 0.5 0.88 2.2
pair_modify shift yes
reset_timestep 0

print "Setting up equilibration run"
Setting up equilibration run
variable dumptime2 equal ${steps}/2000
variable dumptime2 equal 1000000/2000
dump 1 all dcd ${dumptime2} ${basename}.unwrap.dcd
dump 1 all dcd 500 ${basename}.unwrap.dcd
dump 1 all dcd 500 prod/kalj_T0.6_n360_v300_prod_1000000_1.unwrap.dcd
#dump 2 all dcd ${dumptime2} ${basename}.dcd
dump_modify 1 unwrap yes
#dump_modify 2 unwrap no

restart ${restarttime} ${basename}.restart
restart 1000000 ${basename}.restart
restart 1000000 prod/kalj_T0.6_n360_v300_prod_1000000_1.restart
restart ${steps} ${basename}.final.lmprestart
restart 1000000 ${basename}.final.lmprestart
restart 1000000 prod/kalj_T0.6_n360_v300_prod_1000000_1.final.lmprestart

thermo ${thermotime}
thermo 50000
timestep ${timestep}
timestep 0.003

neighbor 0.5 bin
neigh_modify every 1 delay ${neighborstep} check yes
neigh_modify every 1 delay 25 check yes

#velocity all create ${temp} ${id} dist gaussian
fix 1 all nvt temp ${temp} ${temp} ${taut}
fix 1 all nvt temp 0.6 ${temp} ${taut}
fix 1 all nvt temp 0.6 0.6 ${taut}
fix 1 all nvt temp 0.6 0.6 0.3
Resetting global fix info from restart file:
  fix style: nvt, fix ID: 1

variable steps4 equal ${steps}/4
variable steps4 equal 1000000/4
run ${steps4}
run 250000
Generated 0 of 1 mixed pair_coeff terms from geometric mixing rule
All restart file global fix info was re-assigned
Neighbor list info ...
  update: every = 1 steps, delay = 25 steps, check = yes
  max neighbors/atom: 2000, page size: 100000
  master list distance cutoff = 3
  ghost atom cutoff = 3
  binsize = 1.5, bins = 5 5 5
  1 neighbor lists, perpetual/occasional/extra = 1 0 0
  (1) pair lj/cut, perpetual
      attributes: half, newton on
      pair build: half/bin/atomonly/newton
      stencil: half/bin/3d
      bin: standard
Per MPI rank memory allocation (min/avg/max) = 3.137 | 3.137 | 3.138 Mbytes
   Step          Temp          E_pair         E_mol          TotEng         Press     
         0   0.54239625    -6.7915888      0             -5.9802544      4.5917932    
     50000   0.61527509    -6.6876438      0             -5.7672948      5.2259668    
    100000   0.59458782    -6.6750222      0             -5.785618       5.4673316    
    150000   0.61751518    -6.7530676      0             -5.8293678      4.8589654    
    200000   0.5956947     -6.6765289      0             -5.785469       5.2509777    
    250000   0.65198047    -6.7192343      0             -5.7439802      5.2546837    
Loop time of 25.4436 on 4 procs for 250000 steps with 360 atoms

Performance: 2546812.168 tau/day, 9825.664 timesteps/s, 3.537 Matom-step/s
99.6% CPU use with 4 MPI tasks x 1 OpenMP threads

MPI task timing breakdown:
Section |  min time  |  avg time  |  max time  |%varavg| %total
---------------------------------------------------------------
Pair    | 12.903     | 12.996     | 13.158     |   2.7 | 51.08
Neigh   | 1.2703     | 1.2771     | 1.2946     |   0.9 |  5.02
Comm    | 9.4921     | 9.5692     | 9.6506     |   1.9 | 37.61
Output  | 0.11482    | 0.12048    | 0.13139    |   1.9 |  0.47
Modify  | 1.0383     | 1.1662     | 1.2676     |   7.6 |  4.58
Other   |            | 0.3148     |            |       |  1.24

Nlocal:             90 ave          95 max          86 min
Histogram: 1 0 1 0 0 1 0 0 0 1
Nghost:           1233 ave        1248 max        1221 min
Histogram: 1 1 0 0 0 0 1 0 0 1
Neighs:        5194.75 ave        5700 max        4861 min
Histogram: 1 0 1 1 0 0 0 0 0 1

Total # of neighbors = 20779
Ave neighs/atom = 57.719444
Neighbor list builds = 7485
Dangerous builds = 149
Total wall time: 0:00:25
