LAMMPS (15 Sep 2022)
OMP_NUM_THREADS environment is not set. Defaulting to 1 thread. (src/comm.cpp:98)
  using 1 OpenMP thread(s) per MPI task
# 2d WCA system, random initial configuration

#variable density equal 0.5
variable initial_temperature equal 3.0
variable final_temperature equal 0.1
variable dt equal 0.01
variable tau equal 100*${dt}
variable tau equal 100*0.01
variable thermo_time equal 50000*${dt}
variable thermo_time equal 50000*0.01
variable equil_steps equal 50000
variable run_steps equal 100000

units           lj
atom_style      atomic
dimension       3

lattice         fcc ${density}
lattice         fcc 1.5
Lattice spacing in x,y,z = 1.3867225 1.3867225 1.3867225
region          box block 0 8 0 8 0 8
# number of atom types
create_box      1 box
Created orthogonal box = (0 0 0) to (11.09378 11.09378 11.09378)
  2 by 2 by 2 MPI processor grid
create_atoms    1 box
Created 2048 atoms
  using lattice units in orthogonal box = (0 0 0) to (11.09378 11.09378 11.09378)
  create_atoms CPU = 0.041 seconds
mass 1 1.0

velocity all create ${initial_temperature} 12345
velocity all create 3 12345

pair_style      lj/cut 1.0
#type_1 type_2 epsilon sigma cutoff
pair_coeff      1 1 10.0 0.89089871814 1.0
pair_modify shift yes

timestep ${dt}
timestep 0.01
thermo ${thermo_time}
thermo 500

fix 1 all nvt temp ${initial_temperature} ${initial_temperature} ${tau}
fix 1 all nvt temp 3 ${initial_temperature} ${tau}
fix 1 all nvt temp 3 3 ${tau}
fix 1 all nvt temp 3 3 1
run ${equil_steps}
run 50000
Generated 0 of 0 mixed pair_coeff terms from geometric mixing rule
Neighbor list info ...
  update: every = 1 steps, delay = 0 steps, check = yes
  max neighbors/atom: 2000, page size: 100000
  master list distance cutoff = 1.3
  ghost atom cutoff = 1.3
  binsize = 0.65, bins = 18 18 18
  1 neighbor lists, perpetual/occasional/extra = 1 0 0
  (1) pair lj/cut, perpetual
      attributes: half, newton on
      pair build: half/bin/atomonly/newton
      stencil: half/bin/3d
      bin: standard
Per MPI rank memory allocation (min/avg/max) = 3.074 | 3.074 | 3.074 Mbytes
   Step          Temp          E_pair         E_mol          TotEng         Press     
         0   3              0.9375         0              5.4353027      55.122803    
       500   2.7068814      5.53597        0              9.5943095      109.69031    
      1000   3.018049       5.9185893      0              10.443452      114.50807    
      1500   3.0866915      6.0698335      0              10.69761       116.30167    
      2000   3.0879738      5.9491426      0              10.578842      114.96078    
      2500   2.9369542      6.0786427      0              10.481923      115.89666    
      3000   2.9550091      6.1344188      0              10.564768      116.80764    
      3500   2.9804336      6.0654943      0              10.533962      115.97725    
      4000   3.0279523      5.949291       0              10.489002      114.61049    
      4500   3.0923495      5.9480668      0              10.584326      115.05637    
      5000   3.0753373      6.0126585      0              10.623412      115.92244    
      5500   3.0820356      6.0792073      0              10.700003      116.63113    
      6000   3.1589829      5.9258252      0              10.661986      114.93775    
      6500   3.0829129      6.1599634      0              10.782075      117.3302     
      7000   3.0263418      6.0806067      0              10.617903      116.15457    
      7500   3.0847847      6.0185196      0              10.643437      115.75486    
      8000   3.0901988      6.0443934      0              10.677428      115.80321    
      8500   3.1063303      6.1180196      0              10.77524       116.83829    
      9000   3.0764432      6.0593974      0              10.671809      116.17105    
      9500   3.1214327      6.0196264      0              10.699489      115.80921    
     10000   3.1224727      6.0593766      0              10.740799      116.21257    
     10500   3.0605808      6.0065185      0              10.595148      116.0242     
     11000   3.1624215      6.0301064      0              10.771422      116.08725    
     11500   3.0720488      6.1160534      0              10.721877      116.85989    
     12000   3.1013635      5.9540876      0              10.603861      115.31289    
     12500   3.1495337      6.009425       0              10.731419      115.4435     
     13000   3.0520117      6.1625812      0              10.738363      117.30629    
     13500   3.0521237      6.0292129      0              10.605163      115.84997    
     14000   3.0583742      6.0103435      0              10.595665      115.45716    
     14500   3.1370298      6.116477       0              10.819724      116.72761    
     15000   3.0757146      6.0640137      0              10.675333      116.35071    
     15500   3.1179329      6.0063693      0              10.680985      115.57882    
     16000   3.0402275      6.0823361      0              10.640451      116.35261    
     16500   3.1154527      6.0176974      0              10.688595      115.95841    
     17000   3.1433404      6.0819045      0              10.794613      116.59004    
     17500   3.0634235      6.0541521      0              10.647044      116.1252     
     18000   3.0528861      6.0489619      0              10.626055      115.8144     
     18500   3.0473498      6.1615509      0              10.730344      117.266      
     19000   3.0883941      6.0464332      0              10.676762      116.20085    
     19500   3.0925561      6.1707724      0              10.807341      117.44775    
     20000   3.083296       6.009041       0              10.631727      115.54664    
     20500   3.1055606      6.076057       0              10.732123      116.80962    
     21000   3.1322855      5.9459287      0              10.642063      114.95007    
     21500   3.0205992      6.1979945      0              10.726681      117.53073    
     22000   3.0808305      6.0782551      0              10.697244      116.16539    
     22500   3.0404191      6.1205345      0              10.678936      117.16092    
     23000   3.1526703      6.0223718      0              10.749068      116.14572    
     23500   3.108564       6.0576234      0              10.718193      116.40052    
     24000   3.1037745      6.0120951      0              10.665484      115.93854    
     24500   3.0187521      6.0860105      0              10.611928      116.54359    
     25000   3.0820851      6.1285411      0              10.749411      117.1379     
     25500   3.0940896      6.0482147      0              10.687083      115.78091    
     26000   3.1157158      6.0558262      0              10.727118      116.15863    
     26500   3.0080668      6.1369952      0              10.646892      116.71325    
     27000   3.1498336      6.1246114      0              10.847055      117.20118    
     27500   3.0980214      6.0511419      0              10.695905      115.98061    
     28000   3.0540237      6.1153417      0              10.69414       116.84761    
     28500   3.0304396      6.1493323      0              10.692772      116.98696    
     29000   3.0062518      6.1323081      0              10.639484      116.8464     
     29500   3.0800418      6.1424355      0              10.760242      117.09683    
     30000   3.0618387      6.0027666      0              10.593282      115.59956    
     30500   3.0419066      6.1753386      0              10.735971      117.45208    
     31000   3.0239803      6.1060535      0              10.639809      116.5456     
     31500   3.1077161      6.0440569      0              10.703355      116.07484    
     32000   3.0680868      6.1726627      0              10.772546      117.13859    
     32500   3.1080221      6.0419946      0              10.701751      115.92098    
     33000   3.0708902      6.1206413      0              10.724728      116.77424    
     33500   3.0729695      6.1126446      0              10.719848      116.75883    
     34000   3.0664294      6.071453       0              10.668851      116.53521    
     34500   3.0802792      6.0849475      0              10.70311       116.40979    
     35000   3.1299426      6.05621        0              10.748831      116.53342    
     35500   3.1363557      6.0040379      0              10.706274      115.54739    
     36000   3.0862484      6.0820075      0              10.70912       116.71299    
     36500   3.0575761      6.1058652      0              10.68999       116.51543    
     37000   2.9799804      6.2809997      0              10.748788      118.17238    
     37500   3.0676446      6.1222378      0              10.721458      116.99802    
     38000   3.070709       6.0892685      0              10.693083      116.90242    
     38500   3.0627781      6.1548938      0              10.746818      117.53103    
     39000   3.1057152      6.0885714      0              10.74487       116.9381     
     39500   3.1461297      6.0068998      0              10.72379       115.73232    
     40000   3.0753933      6.0182934      0              10.629131      115.71882    
     40500   3.0179923      6.1676133      0              10.692391      117.23221    
     41000   3.1096619      6.0500506      0              10.712266      116.50137    
     41500   3.037124       6.1670727      0              10.720534      117.00753    
     42000   3.1019378      6.1363631      0              10.786998      116.9244     
     42500   2.9881903      6.1377254      0              10.617822      116.92966    
     43000   3.0813331      6.0748468      0              10.69459       116.49715    
     43500   3.1514085      6.0527504      0              10.777555      116.29909    
     44000   3.0676768      6.016041       0              10.615309      115.8502     
     44500   3.0485957      6.098217       0              10.668878      116.74182    
     45000   3.0591813      6.1305331      0              10.717064      117.22624    
     45500   3.1153036      6.0226701      0              10.693344      116.18568    
     46000   3.1122456      5.9865953      0              10.652684      115.41443    
     46500   3.029468       6.1327128      0              10.674696      116.81967    
     47000   3.0680121      6.1823171      0              10.782088      117.58954    
     47500   3.0599233      6.1451542      0              10.732798      116.87141    
     48000   3.035017       6.0900024      0              10.640305      116.96121    
     48500   3.0872337      6.0624399      0              10.691029      116.43601    
     49000   3.0315496      6.1047637      0              10.649868      116.6223     
     49500   3.0278416      6.1361194      0              10.675664      117.21872    
     50000   3.1106403      6.0655267      0              10.729209      116.21654    
Loop time of 6.44177 on 8 procs for 50000 steps with 2048 atoms

Performance: 6706236.020 tau/day, 7761.847 timesteps/s, 15.896 Matom-step/s
99.5% CPU use with 8 MPI tasks x 1 OpenMP threads

MPI task timing breakdown:
Section |  min time  |  avg time  |  max time  |%varavg| %total
---------------------------------------------------------------
Pair    | 1.0176     | 1.0635     | 1.083      |   2.1 | 16.51
Neigh   | 1.7683     | 1.9757     | 2.3687     |  13.2 | 30.67
Comm    | 2.3581     | 2.7079     | 2.9715     |  10.9 | 42.04
Output  | 0.003349   | 0.0040044  | 0.0079989  |   2.4 |  0.06
Modify  | 0.28479    | 0.4146     | 0.53524    |  12.1 |  6.44
Other   |            | 0.276      |            |       |  4.29

Nlocal:            256 ave         266 max         246 min
Histogram: 1 0 3 0 0 0 0 2 0 2
Nghost:        415.125 ave         425 max         405 min
Histogram: 2 0 1 0 1 0 0 1 2 1
Neighs:         1571.5 ave        1618 max        1495 min
Histogram: 1 0 1 0 2 0 0 0 0 4

Total # of neighbors = 12572
Ave neighs/atom = 6.1386719
Neighbor list builds = 20753
Dangerous builds = 0

unfix 1
dump           1 all atom ${run_steps} 3dWCA_T${final_temperature}_d${density}_N${run_steps}.lammpstrj
dump           1 all atom 100000 3dWCA_T${final_temperature}_d${density}_N${run_steps}.lammpstrj
dump           1 all atom 100000 3dWCA_T0.1_d${density}_N${run_steps}.lammpstrj
dump           1 all atom 100000 3dWCA_T0.1_d1.5_N${run_steps}.lammpstrj
dump           1 all atom 100000 3dWCA_T0.1_d1.5_N100000.lammpstrj
dump           2 all dcd ${thermo_time} 3dWCA_T${final_temperature}_d${density}_N${run_steps}.dcd
dump           2 all dcd 500 3dWCA_T${final_temperature}_d${density}_N${run_steps}.dcd
dump           2 all dcd 500 3dWCA_T0.1_d${density}_N${run_steps}.dcd
dump           2 all dcd 500 3dWCA_T0.1_d1.5_N${run_steps}.dcd
dump           2 all dcd 500 3dWCA_T0.1_d1.5_N100000.dcd
fix 1 all nvt temp ${initial_temperature} ${final_temperature} ${tau}
fix 1 all nvt temp 3 ${final_temperature} ${tau}
fix 1 all nvt temp 3 0.1 ${tau}
fix 1 all nvt temp 3 0.1 1

run ${run_steps}
run 100000
Generated 0 of 0 mixed pair_coeff terms from geometric mixing rule
Per MPI rank memory allocation (min/avg/max) = 3.13 | 3.13 | 3.13 Mbytes
   Step          Temp          E_pair         E_mol          TotEng         Press     
     50000   3.1106403      6.0655267      0              10.729209      116.21654    
     50500   3.0863956      6.1286203      0              10.755953      117.1399     
     51000   3.0475235      5.9614999      0              10.530553      115.10424    
     51500   2.983258       6.0561913      0              10.528893      116.2174     
     52000   3.0299046      5.9620123      0              10.50465       114.67268    
     52500   3.0445085      5.8539122      0              10.418445      114.24168    
     53000   2.9621022      5.9449554      0              10.385939      114.66195    
     53500   3.0481127      5.6848916      0              10.254828      111.86491    
     54000   2.958805       5.9533185      0              10.389359      114.67332    
     54500   2.9260712      5.8563776      0              10.243341      113.5156     
     55000   2.9116778      5.8285655      0              10.19395       113.49988    
     55500   2.8552236      5.8578431      0              10.138587      113.3435     
     56000   2.9421151      5.7377298      0              10.148747      112.23766    
     56500   2.822643       5.7520945      0              9.9839917      112.519      
     57000   2.8884039      5.5925585      0              9.9230489      110.98407    
     57500   2.8273137      5.7176017      0              9.9565014      111.85105    
     58000   2.8468102      5.5961279      0              9.8642582      110.9764     
     58500   2.8278756      5.6452622      0              9.8850044      111.2587     
     59000   2.7853698      5.5763688      0              9.7523835      110.44983    
     59500   2.8488093      5.4454893      0              9.7166167      109.49372    
     60000   2.7223057      5.5800472      0              9.661512       110.24084    
     60500   2.708186       5.5804231      0              9.6407185      110.33053    
     61000   2.7202236      5.4923253      0              9.5706683      109.43726    
     61500   2.6471338      5.6284269      0              9.5971887      110.58966    
     62000   2.7301835      5.4408359      0              9.5341114      108.90675    
     62500   2.7262513      5.3595331      0              9.4469133      107.77869    
     63000   2.6622189      5.4342774      0              9.4256559      108.67997    
     63500   2.5990706      5.475676       0              9.3723784      108.59229    
     64000   2.6217747      5.3693336      0              9.3000754      108.15781    
     64500   2.6699517      5.3007864      0              9.3037583      107.2887     
     65000   2.6007647      5.2416441      0              9.1408863      106.41452    
     65500   2.5513519      5.376116       0              9.2012752      107.7136     
     66000   2.5594933      5.2758053      0              9.1131706      106.94474    
     66500   2.5383237      5.2780276      0              9.083654       106.72798    
     67000   2.5173694      5.2623526      0              9.0365629      106.66591    
     67500   2.5330855      5.1490284      0              8.9468013      105.45907    
     68000   2.5063726      5.2016495      0              8.9593727      105.47133    
     68500   2.491485       5.1325233      0              8.867926       104.95004    
     69000   2.5301288      5.0365842      0              8.8299243      104.02984    
     69500   2.493028       5.0550428      0              8.7927589      104.23772    
     70000   2.4479982      5.0596164      0              8.7298206      104.04334    
     70500   2.4316831      5.0393727      0              8.6851163      103.78294    
     71000   2.4445339      4.9856504      0              8.6506608      103.29608    
     71500   2.3724824      5.0327016      0              8.5896876      103.73923    
     72000   2.4049384      4.9135116      0              8.5191578      102.46128    
     72500   2.4001086      4.8950312      0              8.4934362      102.03266    
     73000   2.3425508      4.9548006      0              8.466911       102.69261    
     73500   2.3255629      4.951882       0              8.438523       102.91899    
     74000   2.345128       4.8514618      0              8.3674362      101.45344    
     74500   2.3541323      4.7417515      0              8.2712256      100.14452    
     75000   2.2427466      4.923973       0              8.2864503      102.34024    
     75500   2.2873324      4.7669075      0              8.1962308      100.30354    
     76000   2.2669129      4.8084977      0              8.2072068      100.932      
     76500   2.2539441      4.7207099      0              8.0999752      100.05501    
     77000   2.2226176      4.757293       0              8.0895914      100.32371    
     77500   2.2241302      4.7123854      0              8.0469517      99.463528    
     78000   2.1566985      4.7248248      0              7.9582928      99.785009    
     78500   2.1859039      4.6639414      0              7.9411963      99.026952    
     79000   2.1649742      4.6437684      0              7.8896439      99.111905    
     79500   2.2141763      4.4589899      0              7.7786326      96.747945    
     80000   2.1921904      4.5154909      0              7.8021708      97.413712    
     80500   2.1227069      4.5752589      0              7.7577645      98.072147    
     81000   2.1293844      4.5040208      0              7.6965378      97.133038    
     81500   2.0801126      4.5490706      0              7.6677161      97.928946    
     82000   2.0870609      4.4314055      0              7.5604682      96.530472    
     82500   1.9784873      4.5428811      0              7.509163       97.492282    
     83000   2.0853879      4.3988227      0              7.5253772      96.16835     
     83500   2.0520854      4.3575719      0              7.434197       95.498739    
     84000   1.9508996      4.4666414      0              7.3915619      96.457108    
     84500   1.9794142      4.2830501      0              7.2507216      94.363916    
     85000   2.0077288      4.3289436      0              7.3390663      94.859001    
     85500   1.9255804      4.2239628      0              7.1109231      93.712297    
     86000   2.0191431      4.1990013      0              7.2262371      93.356309    
     86500   1.9139758      4.1644283      0              7.0339902      92.969565    
     87000   1.942776       4.1646696      0              7.0774106      92.967212    
     87500   1.8650225      4.2443372      0              7.040505       93.87767     
     88000   1.9022233      4.2233678      0              7.0753095      93.794361    
     88500   1.8468519      4.1098194      0              6.8787445      92.096735    
     89000   1.868235       4.2331754      0              7.0341596      93.656425    
     89500   1.8387372      4.0879227      0              6.8446818      92.092355    
     90000   1.8256648      4.1240183      0              6.8611783      92.402855    
     90500   1.8600304      3.9518945      0              6.7405778      90.434074    
     91000   1.8453905      4.0940567      0              6.8607909      92.013411    
     91500   1.7939196      3.9999648      0              6.6895303      90.903056    
     92000   1.8058646      4.0491229      0              6.7565971      91.365666    
     92500   1.8239887      3.9141117      0              6.6487588      89.798919    
     93000   1.7233982      3.9550274      0              6.5388624      90.045024    
     93500   1.7250402      3.9078276      0              6.4941245      89.369904    
     94000   1.7086851      3.9090635      0              6.4708397      89.515596    
     94500   1.7228957      3.9025012      0              6.4855828      89.43153     
     95000   1.7115118      3.7918105      0              6.3578247      88.306569    
     95500   1.6936423      3.8318026      0              6.3710256      88.723787    
     96000   1.6491221      3.748985       0              6.2214603      87.597142    
     96500   1.6811363      3.7485374      0              6.2690106      87.695446    
     97000   1.6143811      3.6978612      0              6.1182504      86.741011    
     97500   1.6382534      3.7228565      0              6.1790367      87.341626    
     98000   1.5884641      3.6552312      0              6.0367639      86.226876    
     98500   1.6113151      3.7119438      0              6.1277363      87.161281    
     99000   1.5419709      3.6058552      0              5.9176822      85.747693    
     99500   1.5742786      3.5779229      0              5.9381878      85.26838     
    100000   1.5427986      3.6099193      0              5.9229872      85.605304    
    100500   1.5403244      3.5668015      0              5.8761599      85.135494    
    101000   1.5531574      3.6116644      0              5.9402629      85.856963    
    101500   1.4528669      3.5346479      0              5.7128841      84.617537    
    102000   1.5000053      3.543891       0              5.7928003      84.611088    
    102500   1.4812563      3.3668843      0              5.5876838      82.693158    
    103000   1.4587693      3.488331       0              5.6754165      83.903201    
    103500   1.4762877      3.4324801      0              5.6458303      83.127843    
    104000   1.4080176      3.3894473      0              5.5004424      82.827613    
    104500   1.4012563      3.4176574      0              5.5185156      83.233822    
    105000   1.4027083      3.3644679      0              5.467503       82.508243    
    105500   1.3701466      3.3928316      0              5.447048       82.564544    
    106000   1.374957       3.2491076      0              5.310536       80.940221    
    106500   1.3793779      3.3246502      0              5.3927067      81.80361     
    107000   1.3381194      3.219144       0              5.225343       80.522845    
    107500   1.3494011      3.2803148      0              5.3034282      81.263319    
    108000   1.3051301      3.2160072      0              5.1727464      80.510818    
    108500   1.3444595      3.2402747      0              5.2559793      80.76384     
    109000   1.2764612      3.1603783      0              5.0741351      79.592044    
    109500   1.2897148      3.1449725      0              5.0786001      79.529775    
    110000   1.2475797      3.1860821      0              5.0565378      79.936178    
    110500   1.2143962      3.142556       0              4.9632608      79.29657     
    111000   1.286283       3.0859352      0              5.0144176      78.939558    
    111500   1.2118909      3.0509826      0              4.8679314      78.239374    
    112000   1.2065726      3.0710133      0              4.8799885      78.561209    
    112500   1.2097382      2.9917626      0              4.8054839      77.432658    
    113000   1.1923678      2.9663782      0              4.7540566      77.12279     
    113500   1.1509542      2.8955867      0              4.6211751      75.979255    
    114000   1.1408154      2.9367024      0              4.6470899      76.946209    
    114500   1.1335419      2.8979458      0              4.5974285      76.183199    
    115000   1.0833975      2.9045078      0              4.5288105      76.247705    
    115500   1.0791735      2.8603431      0              4.4783129      75.713199    
    116000   1.1177628      2.8132286      0              4.4890542      75.15722     
    116500   1.0507854      2.7760822      0              4.3514907      74.557366    
    117000   1.0281976      2.7879004      0              4.3294438      74.48936     
    117500   1.0557848      2.7276514      0              4.3105554      73.847202    
    118000   1.0333349      2.7112961      0              4.2605416      73.601828    
    118500   1.0294692      2.6599813      0              4.2034311      72.957032    
    119000   1.0176728      2.6725002      0              4.198264       73.056002    
    119500   0.98252371     2.6241189      0              4.0971849      72.397328    
    120000   0.97720867     2.6648331      0              4.1299304      72.808997    
    120500   0.94108578     2.5916863      0              4.0026257      72.004968    
    121000   0.94326559     2.6446708      0              4.0588783      72.58894     
    121500   0.93446459     2.5369359      0              3.9379484      71.101179    
    122000   0.93020831     2.5527001      0              3.9473313      71.547923    
    122500   0.89047698     2.5205081      0              3.8555714      70.86162     
    123000   0.89190886     2.4676267      0              3.8048368      70.300359    
    123500   0.87675558     2.4411694      0              3.7556606      69.796483    
    124000   0.85014475     2.407169       0              3.6817635      69.463902    
    124500   0.81047721     2.4291836      0              3.6443058      69.638539    
    125000   0.82678842     2.3477551      0              3.5873321      68.532977    
    125500   0.82209565     2.3921742      0              3.6247155      69.219319    
    126000   0.78383301     2.3378512      0              3.5130266      68.506733    
    126500   0.7563625      2.3131493      0              3.4471391      67.981813    
    127000   0.76474712     2.3236875      0              3.4702481      68.10653     
    127500   0.73499101     2.2416463      0              3.3435945      67.215051    
    128000   0.74359149     2.2824623      0              3.397305       67.43322     
    128500   0.72560763     2.1864955      0              3.2743755      66.397427    
    129000   0.71547255     2.1842286      0              3.2569134      66.282259    
    129500   0.70054581     2.1587939      0              3.2090995      65.81807     
    130000   0.68956641     2.1383029      0              3.1721474      65.664006    
    130500   0.65472755     2.1309504      0              3.1125622      65.477051    
    131000   0.68077767     2.1154226      0              3.1360905      65.336274    
    131500   0.62556641     2.0615124      0              2.9994038      64.549484    
    132000   0.63177933     2.0516863      0              2.9988925      64.420331    
    132500   0.61674635     1.9893871      0              2.9140549      63.540211    
    133000   0.58840592     1.9638865      0              2.8460644      63.114443    
    133500   0.58361433     1.9615116      0              2.8365057      63.07324     
    134000   0.5726509      1.8795997      0              2.7381566      61.964607    
    134500   0.54599252     1.9067199      0              2.7253087      62.345384    
    135000   0.53526093     1.8581062      0              2.6606055      61.671208    
    135500   0.52184141     1.8441148      0              2.6264947      61.526203    
    136000   0.49686599     1.8316812      0              2.5766163      61.39345     
    136500   0.49120546     1.805456       0              2.5419044      60.940385    
    137000   0.48637431     1.7691396      0              2.4983449      60.456553    
    137500   0.46698329     1.7547566      0              2.4548895      60.183215    
    138000   0.44718617     1.705262       0              2.3757137      59.574421    
    138500   0.43013253     1.6991331      0              2.3440168      59.40446     
    139000   0.41879176     1.6789646      0              2.3068455      59.215589    
    139500   0.41441114     1.6324833      0              2.2537965      58.594703    
    140000   0.40159976     1.5984705      0              2.200576       58.101897    
    140500   0.38577407     1.5877226      0              2.1661012      57.950687    
    141000   0.3522525      1.588188       0              2.1163087      57.868387    
    141500   0.35674862     1.5318079      0              2.0666696      57.156021    
    142000   0.33405685     1.521381       0              2.0222216      57.01303     
    142500   0.32615709     1.4867498      0              1.9757466      56.574178    
    143000   0.2996697      1.4794762      0              1.9287613      56.460231    
    143500   0.2888407      1.4452856      0              1.8783351      56.043503    
    144000   0.27467933     1.4186872      0              1.830505       55.702607    
    144500   0.26594951     1.3821848      0              1.7809143      55.25647     
    145000   0.24884594     1.3634223      0              1.736509       54.998198    
    145500   0.23388727     1.3377802      0              1.6884398      54.668942    
    146000   0.2177454      1.3157428      0              1.6422014      54.400566    
    146500   0.20384744     1.2878282      0              1.59345        54.089182    
    147000   0.19672382     1.2501042      0              1.5450458      53.638129    
    147500   0.17439074     1.2378502      0              1.4993086      53.484264    
    148000   0.1588724      1.2132346      0              1.4514268      53.211613    
    148500   0.14707601     1.1844518      0              1.4049581      52.886418    
    149000   0.13369259     1.157699       0              1.35814        52.648306    
    149500   0.12022812     1.1306697      0              1.3109238      52.370139    
    150000   0.10403738     1.1091465      0              1.2651264      52.148985    
Loop time of 9.91056 on 8 procs for 100000 steps with 2048 atoms

Performance: 8717971.410 tau/day, 10090.245 timesteps/s, 20.665 Matom-step/s
99.4% CPU use with 8 MPI tasks x 1 OpenMP threads

MPI task timing breakdown:
Section |  min time  |  avg time  |  max time  |%varavg| %total
---------------------------------------------------------------
Pair    | 1.9042     | 1.9762     | 2.0555     |   3.0 | 19.94
Neigh   | 1.8044     | 2.0194     | 2.4286     |  13.4 | 20.38
Comm    | 4.0657     | 4.4131     | 4.7322     |   9.1 | 44.53
Output  | 0.18138    | 0.18175    | 0.18303    |   0.1 |  1.83
Modify  | 0.6467     | 0.82094    | 0.98152    |  15.0 |  8.28
Other   |            | 0.4991     |            |       |  5.04

Nlocal:            256 ave         268 max         247 min
Histogram: 2 0 0 1 2 1 1 0 0 1
Nghost:            409 ave         418 max         397 min
Histogram: 1 0 0 1 1 2 1 0 0 2
Neighs:        1536.25 ave        1595 max        1464 min
Histogram: 1 0 1 1 0 1 2 0 1 1

Total # of neighbors = 12290
Ave neighs/atom = 6.0009766
Neighbor list builds = 22257
Dangerous builds = 0
Total wall time: 0:00:16
