LAMMPS (15 Sep 2022)
OMP_NUM_THREADS environment is not set. Defaulting to 1 thread. (src/comm.cpp:98)
  using 1 OpenMP thread(s) per MPI task
Total wall time: 0:00:00
/opt/slurm/data/slurmd/job52635428/slurm_script: line 4: vmd: command not found
LAMMPS (15 Sep 2022)
OMP_NUM_THREADS environment is not set. Defaulting to 1 thread. (src/comm.cpp:98)
  using 1 OpenMP thread(s) per MPI task
Total wall time: 0:00:00
/opt/slurm/data/slurmd/job52635428/slurm_script: line 4: vmd: command not found
LAMMPS (15 Sep 2022)
OMP_NUM_THREADS environment is not set. Defaulting to 1 thread. (src/comm.cpp:98)
  using 1 OpenMP thread(s) per MPI task
Total wall time: 0:00:00
/opt/slurm/data/slurmd/job52635428/slurm_script: line 4: vmd: command not found
LAMMPS (15 Sep 2022)
OMP_NUM_THREADS environment is not set. Defaulting to 1 thread. (src/comm.cpp:98)
  using 1 OpenMP thread(s) per MPI task
Total wall time: 0:00:00
/opt/slurm/data/slurmd/job52635428/slurm_script: line 4: vmd: command not found
LAMMPS (15 Sep 2022)
OMP_NUM_THREADS environment is not set. Defaulting to 1 thread. (src/comm.cpp:98)
  using 1 OpenMP thread(s) per MPI task
Total wall time: 0:00:00
/opt/slurm/data/slurmd/job52635428/slurm_script: line 4: vmd: command not found
LAMMPS (15 Sep 2022)
OMP_NUM_THREADS environment is not set. Defaulting to 1 thread. (src/comm.cpp:98)
  using 1 OpenMP thread(s) per MPI task
Total wall time: 0:00:00
/opt/slurm/data/slurmd/job52635428/slurm_script: line 4: vmd: command not found
LAMMPS (15 Sep 2022)
OMP_NUM_THREADS environment is not set. Defaulting to 1 thread. (src/comm.cpp:98)
  using 1 OpenMP thread(s) per MPI task
Total wall time: 0:00:00
/opt/slurm/data/slurmd/job52635428/slurm_script: line 4: vmd: command not found
