ITEM: TIMESTEP
0
ITEM: NUMBER OF ATOMS
360
ITEM: BOX BOUNDS pp pp pp
0.0000000000000000e+00 6.6943295008216896e+00
0.0000000000000000e+00 6.6943295008216896e+00
0.0000000000000000e+00 6.6943295008216896e+00
ITEM: ATOMS id type xs ys zs
236 1 0.200378 0.104686 0.13145
194 1 0.0503051 0.0941565 0.105732
134 1 0.113147 0.240603 0.108232
159 1 0.233503 0.229106 0.0271852
336 2 0.246046 0.232082 0.147602
277 1 0.335211 0.130778 0.206851
292 2 0.319594 0.149663 0.0755053
1 1 0.443933 0.1073 0.0885137
263 1 0.339122 0.00104776 0.0733064
144 1 0.594008 0.0853931 0.0564341
311 2 0.50125 0.208883 0.148318
355 2 0.713796 0.0622879 0.0280141
184 1 0.718488 0.0607154 0.154566
271 1 0.54801 0.218841 0.020546
114 1 0.654419 0.205865 0.152205
272 1 0.546457 0.097458 0.20746
135 1 0.788577 0.171497 0.0583097
286 1 0.913017 0.135694 0.175333
84 1 0.931616 0.232642 0.043998
82 1 0.911997 0.0707 0.037293
335 2 0.995908 0.0438558 0.216767
161 1 0.111271 0.396163 0.0861789
154 1 0.0413903 0.42579 0.229594
115 1 0.164203 0.322334 0.241272
121 1 0.192917 0.464382 0.202452
167 1 0.249861 0.356268 0.111213
195 1 0.383913 0.2526 0.106953
44 1 0.410626 0.401766 0.148087
278 1 0.314756 0.315833 0.24136
9 1 0.388344 0.356727 0.00505421
168 1 0.565422 0.365492 0.04494
252 1 0.646426 0.435625 0.166372
73 1 0.537243 0.320079 0.188827
299 2 0.520637 0.449368 0.123394
89 1 0.703753 0.301504 0.0121677
312 2 0.828967 0.305112 0.0331827
246 1 0.8303 0.272259 0.162612
10 1 0.945297 0.377387 0.083197
106 1 0.784154 0.415771 0.0757274
105 1 0.867806 0.432803 0.214332
67 1 0.985531 0.281943 0.211261
321 2 0.758205 0.499206 0.237553
216 1 0.148969 0.554202 0.0662327
93 1 0.152579 0.712003 0.121333
108 1 0.0837699 0.601115 0.224272
145 1 0.012212 0.627084 0.0144166
208 1 0.299503 0.504021 0.055414
352 2 0.253149 0.666569 0.0559032
221 1 0.272405 0.61632 0.177933
294 2 0.393411 0.541283 0.144493
163 1 0.383562 0.653364 0.0767474
91 1 0.400892 0.713196 0.226452
199 1 0.452035 0.502777 0.0192821
230 1 0.490581 0.745797 0.112266
117 1 0.506184 0.594352 0.147803
305 2 0.604951 0.662731 0.113343
211 1 0.692473 0.604998 0.193576
7 1 0.626673 0.523826 0.0439264
27 1 0.567099 0.693228 0.241161
64 1 0.704837 0.65206 0.0265432
78 1 0.521737 0.642701 0.00736523
88 1 0.976355 0.515645 0.133455
268 1 0.781898 0.713582 0.148081
322 2 0.758065 0.533504 0.014475
269 1 0.814041 0.562913 0.124379
12 1 0.951945 0.669874 0.151558
137 1 0.857581 0.711332 0.0154997
289 2 0.837629 0.62953 0.221518
147 1 0.116116 0.998892 0.199649
160 1 0.0515591 0.756545 0.23684
30 1 0.142247 0.980288 0.036561
155 1 0.135679 0.855464 0.147651
69 1 0.0130752 0.78865 0.0423946
306 2 0.247756 0.88696 0.0722071
213 1 0.389272 0.997225 0.226271
59 1 0.284591 0.782041 0.170704
251 1 0.263886 0.931684 0.198263
56 1 0.404956 0.86532 0.117993
46 1 0.512332 0.976051 0.127505
103 1 0.501223 0.843402 0.23668
143 1 0.63823 0.802445 0.148432
298 2 0.536847 0.858258 0.109217
228 1 0.646089 0.933193 0.0536605
256 1 0.619971 0.945735 0.231061
181 1 0.747556 0.812576 0.0275218
212 1 0.602664 0.780471 0.00556707
17 1 0.86132 0.996839 0.204493
19 1 0.764002 0.87204 0.211101
125 1 0.986772 0.940337 0.103392
28 1 0.917282 0.818989 0.169563
238 1 0.796532 0.959668 0.0522684
172 1 0.055188 0.131412 0.27486
58 1 0.146446 0.163873 0.424095
130 1 0.116069 0.0110013 0.354715
34 1 0.203014 0.180493 0.265193
129 1 0.00338389 0.108259 0.455741
85 1 0.00709319 0.246424 0.396781
189 1 0.265092 0.0622272 0.484079
70 1 0.300049 0.177211 0.388862
266 1 0.436131 0.0731909 0.344601
175 1 0.269317 0.0375068 0.324228
109 1 0.478324 0.221199 0.43134
276 1 0.450127 0.230141 0.268411
293 2 0.662546 0.104257 0.258182
158 1 0.587324 0.0660301 0.356676
180 1 0.612027 0.220961 0.317698
237 1 0.726286 0.12573 0.404861
307 2 0.734887 0.239326 0.35187
173 1 0.747967 0.00241955 0.312743
170 1 0.783124 0.14681 0.263489
226 1 0.919471 0.0590645 0.324903
202 1 0.87453 0.173531 0.405225
267 1 0.824902 0.00862876 0.45311
32 1 0.110918 0.348975 0.38224
359 2 0.242681 0.283533 0.340344
35 1 0.228522 0.294986 0.474211
303 2 0.0970043 0.268424 0.485447
288 1 0.246351 0.414429 0.360226
23 1 0.350919 0.493641 0.262158
341 2 0.42679 0.386297 0.283392
141 1 0.367269 0.322302 0.384226
24 1 0.412146 0.478493 0.395019
113 1 0.517954 0.481792 0.252645
43 1 0.615443 0.296305 0.469114
77 1 0.52373 0.353611 0.347866
86 1 0.710977 0.329132 0.261983
348 2 0.666242 0.363883 0.377068
178 1 0.562422 0.474448 0.44378
153 1 0.660403 0.493641 0.335104
3 1 0.721624 0.455191 0.485832
225 1 0.849335 0.285816 0.314687
80 1 0.960015 0.396051 0.34903
79 1 0.778675 0.31989 0.441802
320 2 0.922422 0.268607 0.480835
87 1 0.809876 0.444463 0.346688
39 1 0.873487 0.427386 0.492147
207 1 0.124417 0.508369 0.359697
249 1 0.166029 0.663389 0.339147
90 1 0.0201716 0.660006 0.373883
287 1 0.113882 0.604725 0.490265
343 2 0.230577 0.548109 0.29919
301 2 0.0363999 0.703196 0.498931
334 2 0.450248 0.594728 0.266802
50 1 0.266391 0.545215 0.432312
206 1 0.336837 0.627384 0.330391
222 1 0.410843 0.615552 0.472058
329 2 0.534668 0.690827 0.468852
279 1 0.528397 0.604354 0.369645
310 2 0.657847 0.645272 0.335941
177 1 0.657081 0.59799 0.45438
232 1 0.727945 0.739049 0.282786
187 1 0.99479 0.5208 0.433928
124 1 0.947475 0.561577 0.285216
52 1 0.767298 0.724697 0.442543
128 1 0.773549 0.59624 0.331763
325 2 0.882142 0.614353 0.408828
25 1 0.912062 0.721077 0.468989
151 1 0.900832 0.725105 0.293011
95 1 0.156305 0.765436 0.456008
317 2 0.110934 0.895266 0.426384
201 1 0.142882 0.87609 0.296057
148 1 0.242648 0.917168 0.415597
101 1 0.0213961 0.813298 0.38971
296 2 0.362472 0.856947 0.262895
209 1 0.448097 0.761947 0.363663
196 1 0.281981 0.784019 0.330459
165 1 0.400706 0.921827 0.371771
100 1 0.348865 0.808503 0.49573
315 2 0.499121 0.974815 0.277336
240 1 0.499453 0.814207 0.4875
248 1 0.609728 0.750144 0.386973
318 2 0.615407 0.815427 0.272445
280 1 0.663302 0.98115 0.4717
219 1 0.554843 0.915497 0.368542
2 1 0.704386 0.868484 0.367913
347 2 0.622391 0.855536 0.473208
107 1 0.995234 0.924646 0.270404
233 1 0.991845 0.956112 0.441031
97 1 0.852568 0.868516 0.344808
350 2 0.108021 0.124635 0.552255
31 1 0.109701 0.190719 0.675477
120 1 0.0139461 0.070278 0.615875
227 1 0.200672 0.0140454 0.642219
354 2 0.0910116 0.0743181 0.714902
33 1 0.00906312 0.227829 0.565144
119 1 0.222857 0.170237 0.582451
253 1 0.120286 0.00430982 0.511277
36 1 0.410081 0.107883 0.500302
224 1 0.365543 0.16046 0.660885
308 2 0.319826 0.0438974 0.596361
188 1 0.433302 0.0268202 0.644597
326 2 0.49687 0.237809 0.556246
244 1 0.520097 0.00948384 0.514292
22 1 0.590274 0.146064 0.503128
198 1 0.512805 0.150836 0.647726
316 2 0.651673 0.158774 0.67299
16 1 0.638812 0.0473286 0.61607
274 1 0.73361 0.213336 0.537031
291 2 0.722255 0.0926855 0.523773
220 1 0.770079 0.120464 0.669394
215 1 0.878854 0.132635 0.553491
76 1 0.927663 0.194988 0.694303
323 2 0.905691 0.0595463 0.691545
300 2 0.919523 0.00966465 0.554293
270 1 0.160119 0.443801 0.500956
174 1 0.13992 0.323812 0.604499
353 2 0.101747 0.419397 0.711178
118 1 0.244552 0.443395 0.651846
29 1 0.0177311 0.382315 0.512315
234 1 0.00399088 0.334707 0.687459
231 1 0.260946 0.270718 0.724772
235 1 0.367662 0.261092 0.537654
340 2 0.275119 0.317339 0.602026
183 1 0.333524 0.420908 0.514651
54 1 0.3847 0.345533 0.671507
261 1 0.454411 0.474435 0.660141
136 1 0.486796 0.367667 0.549953
290 2 0.464184 0.49829 0.531346
309 2 0.518206 0.332631 0.696366
260 1 0.604202 0.274658 0.623088
42 1 0.615604 0.438069 0.607069
351 2 0.70226 0.335681 0.554604
98 1 0.741092 0.280228 0.69199
205 1 0.967677 0.487143 0.642642
283 1 0.782834 0.423388 0.626784
259 1 0.869763 0.312325 0.600818
40 1 0.114917 0.530631 0.628508
331 2 0.219389 0.553167 0.556063
164 1 0.224841 0.642336 0.660685
8 1 0.106071 0.715906 0.611319
214 1 0.022372 0.61879 0.707401
245 1 0.264543 0.690845 0.522569
223 1 0.349709 0.56775 0.605023
191 1 0.452714 0.614905 0.706027
330 2 0.449431 0.671601 0.586713
138 1 0.366125 0.733863 0.650291
190 1 0.551127 0.588939 0.579822
345 2 0.643429 0.665721 0.662207
162 1 0.706837 0.572757 0.629909
176 1 0.594566 0.54308 0.745859
53 1 0.641223 0.730166 0.546037
111 1 0.807571 0.58389 0.503537
185 1 0.8089 0.722018 0.614854
255 1 0.954699 0.610169 0.557172
112 1 0.849373 0.570333 0.670533
210 1 0.22464 0.788463 0.68785
71 1 0.196074 0.868141 0.565872
333 2 0.0770443 0.965899 0.634855
133 1 0.0777398 0.84651 0.691017
140 1 0.0425338 0.85124 0.537128
247 1 0.369688 0.960052 0.516487
186 1 0.468828 0.893398 0.718777
297 2 0.454655 0.871442 0.589596
265 1 0.324542 0.900807 0.654867
102 1 0.527696 0.754329 0.638387
357 2 0.551766 0.987744 0.704037
275 1 0.680314 0.793688 0.674827
72 1 0.579828 0.902869 0.61948
4 1 0.732642 0.860173 0.528884
203 1 0.883935 0.848169 0.519725
218 1 0.79192 0.987902 0.608251
65 1 0.958736 0.76243 0.635149
18 1 0.942286 0.91453 0.645938
171 1 0.821054 0.826832 0.722019
239 1 0.09662 0.157598 0.977132
126 1 0.211077 0.0999157 0.763532
57 1 0.0638044 0.147505 0.811849
49 1 0.218159 0.202393 0.877766
146 1 0.1349 0.0291182 0.888974
169 1 0.456407 0.226779 0.772755
41 1 0.257425 0.0899079 0.987219
346 2 0.466624 0.0967664 0.772
182 1 0.396631 0.034494 0.937075
26 1 0.349323 0.136702 0.821621
92 1 0.381013 0.193423 0.965835
314 2 0.26151 0.0416154 0.8594
349 2 0.511636 0.0443948 0.97288
94 1 0.675967 0.164187 0.948967
150 1 0.612169 0.0809463 0.768352
258 1 0.519087 0.14108 0.889554
45 1 0.618701 0.230225 0.780476
217 1 0.653758 0.0146856 0.919877
342 2 0.730229 0.030298 0.814375
131 1 0.759444 0.159815 0.81256
110 1 0.917963 0.103025 0.81971
304 2 0.975069 0.149255 0.921872
96 1 0.808883 0.0582254 0.912586
21 1 0.848598 0.215085 0.92403
149 1 0.0412679 0.468224 0.962982
229 1 0.126175 0.295082 0.783861
75 1 0.0573473 0.322305 0.95765
324 2 0.146652 0.40939 0.873187
179 1 0.031184 0.436232 0.812067
200 1 0.244033 0.409623 0.803545
13 1 0.216049 0.355358 0.956404
152 1 0.461877 0.380032 0.805102
356 2 0.471117 0.275667 0.89306
204 1 0.334885 0.304803 0.869179
250 1 0.351204 0.47454 0.897948
81 1 0.615869 0.392054 0.765153
47 1 0.583424 0.314079 0.900032
5 1 0.552805 0.482823 0.901095
14 1 0.700008 0.446257 0.940208
68 1 0.734147 0.315589 0.845679
241 1 0.736052 0.498105 0.762343
328 2 0.840285 0.260372 0.797202
11 1 0.967879 0.26026 0.841055
123 1 0.868109 0.376243 0.766818
327 2 0.808379 0.439706 0.866018
284 1 0.881924 0.367193 0.938082
166 1 0.164306 0.537294 0.772034
295 2 0.208039 0.631744 0.85202
83 1 0.18868 0.517225 0.922744
60 1 0.163297 0.681173 0.969654
264 1 0.134211 0.696225 0.771684
62 1 0.0404791 0.580971 0.857202
344 2 0.0169544 0.733144 0.768021
6 1 0.0322607 0.738997 0.89205
358 2 0.470538 0.510107 0.785911
122 1 0.310223 0.667194 0.788454
127 1 0.332201 0.521482 0.750081
132 1 0.304221 0.621421 0.942175
55 1 0.448375 0.606262 0.872004
337 2 0.354256 0.729994 0.896
61 1 0.738323 0.65879 0.752667
282 1 0.577346 0.694506 0.774977
192 1 0.628503 0.613004 0.891549
313 2 0.553382 0.722439 0.893678
104 1 0.901545 0.678585 0.771719
242 1 0.891783 0.518131 0.99447
197 1 0.776962 0.597473 0.899681
99 1 0.89795 0.523659 0.821412
332 2 0.899184 0.629195 0.905527
48 1 0.204205 0.937251 0.76916
338 2 0.0477133 0.898798 0.98099
142 1 0.0146696 0.989898 0.773327
262 1 0.152917 0.834182 0.995374
157 1 0.0987964 0.866769 0.852999
139 1 0.246828 0.796871 0.861486
38 1 0.307715 0.786563 0.999518
360 2 0.381299 0.90795 0.978319
285 1 0.352699 0.99237 0.782198
319 2 0.327039 0.822238 0.759139
156 1 0.438735 0.757764 0.788237
243 1 0.451617 0.766966 0.966352
116 1 0.390991 0.875208 0.859194
63 1 0.267562 0.935669 0.935825
20 1 0.514174 0.983879 0.839482
37 1 0.658006 0.935673 0.766684
257 1 0.689196 0.754073 0.880189
51 1 0.510039 0.914299 0.984138
15 1 0.55845 0.842317 0.856001
339 2 0.658945 0.882549 0.939537
74 1 0.995765 0.998765 0.926491
302 2 0.885194 0.958601 0.876589
66 1 0.844691 0.77116 0.877251
273 1 0.834728 0.984999 0.757418
254 1 0.76578 0.910115 0.889405
281 1 0.900968 0.874583 0.970073
193 1 0.955939 0.85371 0.792974
ITEM: TIMESTEP
1000000
ITEM: NUMBER OF ATOMS
360
ITEM: BOX BOUNDS pp pp pp
0.0000000000000000e+00 6.6943295008216896e+00
0.0000000000000000e+00 6.6943295008216896e+00
0.0000000000000000e+00 6.6943295008216896e+00
ITEM: ATOMS id type xs ys zs
134 1 0.0870173 0.0455137 0.132253
207 1 0.107003 0.199622 0.13206
236 1 0.205918 0.0654114 0.234764
322 2 0.150689 0.185644 0.00437925
60 1 0.243951 0.0821515 0.0346413
159 1 0.26299 0.188925 0.141447
360 2 0.303447 0.0299944 0.153666
19 1 0.399382 0.107329 0.0919233
308 2 0.495071 0.172356 0.0462491
116 1 0.471384 0.0476307 0.216494
51 1 0.58843 0.054612 0.101581
103 1 0.593872 0.222994 0.121413
343 2 0.687083 0.13572 0.106439
272 1 0.645498 0.131918 0.233088
277 1 0.791325 0.114411 0.175302
84 1 0.800841 0.187514 0.0235497
238 1 0.918972 0.0775545 0.0818766
262 1 0.958543 0.067987 0.230391
286 1 0.905282 0.213424 0.207364
358 2 0.00519916 0.00104686 -0.0037738
87 1 0.0373946 0.331969 0.183412
161 1 0.183501 0.39165 0.115867
303 2 0.0587446 0.449391 0.140954
75 1 0.0708406 0.302129 0.00679121
115 1 0.246826 0.28309 0.0269474
13 1 0.201981 0.327739 0.244842
216 1 0.0640082 0.453741 0.00870698
331 2 0.288506 0.31841 0.147687
170 1 0.416652 0.268714 0.120568
284 1 0.326763 0.437662 0.19296
144 1 0.487769 0.365704 0.210158
182 1 0.440734 0.423541 0.075235
208 1 0.291788 0.45225 0.0164573
180 1 0.747811 0.269224 0.160999
82 1 0.613709 0.399133 0.124196
106 1 0.70443 0.466893 0.227111
86 1 0.769202 0.411261 0.0936005
92 1 0.679403 0.304972 0.0126994
114 1 0.581016 0.481322 0.997939
181 1 0.521835 0.306502 0.010882
290 2 0.8539 0.29908 0.0935548
88 1 0.954678 0.220011 0.0646466
179 1 0.940665 0.39491 0.0913903
214 1 0.871043 0.360597 0.235961
56 1 0.176886 0.496731 0.230226
108 1 0.151375 0.662419 0.226271
281 1 0.160875 0.558744 0.0809355
69 1 0.0690405 0.68657 0.0842749
270 1 0.0327099 0.572612 0.183906
59 1 0.230674 0.749147 0.0903056
301 2 0.342989 0.536637 0.0981894
221 1 0.288761 0.606371 0.179496
23 1 0.453605 0.539494 0.173525
121 1 0.403783 0.672576 0.0940631
163 1 0.293449 0.616001 0.0141834
324 2 0.577095 0.520487 0.158522
294 2 0.512362 0.687268 0.187678
269 1 0.698126 0.595368 0.125962
199 1 0.552964 0.635239 0.0769586
151 1 0.625125 0.748236 0.180688
64 1 0.643273 0.742137 0.99822
328 2 0.678585 0.558148 0.99253
246 1 0.969645 0.565969 0.0379517
153 1 0.848405 0.527622 0.179589
313 2 0.751611 0.677101 0.0208475
177 1 0.840966 0.664861 0.124387
268 1 0.814262 0.553664 0.00959373
335 2 0.89718 0.666385 0.993555
97 1 0.974225 0.727261 0.194337
95 1 0.117113 0.823802 0.17763
38 1 0.212108 0.937695 0.112672
71 1 0.107497 0.83029 0.032844
147 1 0.995103 0.925792 0.118082
310 2 0.99176 0.854448 0.220012
213 1 0.301923 0.774298 0.225729
48 1 0.34313 0.974684 0.0186012
243 1 0.355235 0.832257 0.0803269
230 1 0.451134 0.80429 0.195387
251 1 0.353077 0.939418 0.23412
263 1 0.463906 0.940664 0.104756
30 1 0.725891 0.986199 0.134771
264 1 0.512505 0.787218 0.0618145
46 1 0.613836 0.883883 0.101527
318 2 0.592464 0.856359 0.246108
298 2 0.860175 0.995038 0.164139
128 1 0.75967 0.791293 0.105917
254 1 0.937982 0.78775 0.058149
203 1 0.867407 0.858872 0.184032
41 1 0.858645 0.930643 0.0462855
10 1 0.0712116 0.10936 0.317854
130 1 0.210021 0.188472 0.303045
129 1 0.0284008 0.0164878 0.436552
120 1 0.0954746 0.169148 0.46128
321 2 0.0784746 0.223553 0.266372
148 1 0.165769 1.00184 0.373895
1 1 0.497346 0.201007 0.246712
175 1 0.348225 0.15076 0.251145
34 1 0.257752 0.114277 0.434879
167 1 0.437643 0.070462 0.369369
77 1 0.398373 0.210815 0.394192
356 2 0.290487 0.0520586 0.330798
337 2 0.557829 0.0849446 0.316331
172 1 0.695444 0.0853042 0.377857
35 1 0.573335 0.200755 0.374176
79 1 0.701255 0.236346 0.44981
85 1 0.964958 0.216659 0.344498
25 1 0.780033 0.216025 0.31885
349 2 0.805874 0.154681 0.422948
173 1 0.884507 0.07877 0.363773
39 1 0.862418 0.262854 0.457625
278 1 0.203853 0.416563 0.365484
154 1 0.102318 0.291525 0.37618
32 1 0.0541756 0.444358 0.47674
332 2 0.0936547 0.401104 0.298831
70 1 0.171698 0.348579 0.515492
44 1 0.360859 0.297748 0.267768
189 1 0.279799 0.285321 0.421577
311 2 0.309588 0.406033 0.317417
276 1 0.458239 0.362632 0.364395
80 1 0.349118 0.422604 0.457689
183 1 0.509139 0.477855 0.455731
344 2 0.756443 0.35575 0.276469
252 1 0.625237 0.327958 0.262322
113 1 0.553299 0.469532 0.300333
24 1 0.616798 0.368399 0.420762
225 1 0.768258 0.369647 0.40392
36 1 0.981023 0.458814 0.258008
187 1 0.836049 0.478652 0.3263
7 1 0.948893 0.36132 0.378711
299 2 0.813694 0.502998 0.457573
330 2 0.674312 0.331396 0.52607
206 1 0.0973278 0.532021 0.356165
93 1 0.139458 0.683582 0.375722
352 2 0.0451335 0.640135 0.30702
164 1 0.20734 0.50882 0.483665
288 1 0.392855 0.497257 0.322834
156 1 0.250431 0.572632 0.333049
232 1 0.411103 0.662685 0.269125
196 1 0.373805 0.600027 0.440499
297 2 0.430953 0.70596 0.388898
91 1 0.308819 0.746307 0.376792
178 1 0.696979 0.50872 0.386372
192 1 0.601334 0.60755 0.254475
222 1 0.526738 0.605259 0.391271
27 1 0.664825 0.687895 0.383388
248 1 0.537349 0.733951 0.468998
2 1 0.530664 0.74957 0.313725
28 1 0.767362 0.705542 0.250846
359 2 0.730695 0.58686 0.288061
101 1 0.973701 0.689881 0.421863
112 1 0.807659 0.62324 0.392377
111 1 0.941875 0.528577 0.421696
287 1 0.924308 0.613592 0.292109
249 1 0.0707301 0.954686 0.258095
317 2 0.186429 0.777847 0.292071
160 1 0.057638 0.803762 0.320294
201 1 0.191972 0.844433 0.416581
300 2 0.0746087 0.905183 0.386834
155 1 0.218373 0.900951 0.274722
307 2 0.455458 0.961653 0.438635
296 2 0.380896 0.83122 0.310219
165 1 0.324798 0.939602 0.388874
219 1 0.441991 0.837401 0.429076
350 2 0.309632 0.841877 0.479819
158 1 0.480404 0.92007 0.30948
125 1 0.72807 0.870026 0.25731
43 1 0.567376 0.00995408 0.412375
143 1 0.613575 0.982532 0.254617
293 2 0.691319 0.961524 0.353054
4 1 0.627419 0.847653 0.381006
304 2 0.550679 0.8771 0.48776
8 1 0.663154 0.943887 0.526493
237 1 0.791227 0.996982 0.281974
185 1 0.83693 0.759072 0.47005
312 2 0.753602 0.789157 0.357729
347 2 0.897926 0.97992 0.436665
233 1 0.975536 0.852033 0.452427
52 1 0.886898 0.770345 0.316575
218 1 0.789036 0.903328 0.409958
17 1 0.928476 0.930374 0.318836
215 1 0.0910597 0.0632866 0.577558
33 1 0.138708 0.22743 0.603047
253 1 0.118106 0.113351 0.722938
260 1 0.24592 0.105604 0.612939
326 2 0.232308 0.231248 0.516816
109 1 0.375859 0.0448767 0.521123
72 1 0.352661 0.194881 0.535659
314 2 0.353521 0.179834 0.662111
275 1 0.428483 0.0750835 0.674274
315 2 0.329786 0.0042569 0.634347
235 1 0.502446 0.144044 0.507963
22 1 0.655331 0.0942792 0.528413
291 2 0.577793 0.0902469 0.627463
274 1 0.544193 0.155982 0.725129
45 1 0.705469 0.160968 0.726735
282 1 0.598111 0.996324 0.703649
273 1 0.795751 0.0415101 0.48974
202 1 0.770552 0.173911 0.578526
259 1 0.93128 0.13163 0.499286
76 1 0.99303 0.173891 0.640659
220 1 0.86757 0.0829798 0.663566
94 1 0.867053 0.22842 0.715387
29 1 0.00180672 0.289866 0.513071
242 1 0.0783553 0.367191 0.630801
340 2 0.0303235 0.388161 0.743974
229 1 0.185445 0.352473 0.740931
40 1 0.251518 0.43456 0.618274
258 1 0.483607 0.300404 0.511913
325 2 0.356563 0.322111 0.545799
119 1 0.280488 0.278127 0.638159
174 1 0.429956 0.448245 0.591123
198 1 0.436806 0.275188 0.663818
55 1 0.349329 0.391281 0.740996
3 1 0.719557 0.460733 0.532432
81 1 0.604688 0.232145 0.601678
54 1 0.499371 0.402098 0.724297
136 1 0.583284 0.39499 0.581035
152 1 0.703822 0.455047 0.68978
169 1 0.620673 0.320676 0.721529
279 1 0.893232 0.420183 0.514482
348 2 0.899633 0.248761 0.593123
283 1 0.759801 0.317843 0.628885
98 1 0.933849 0.355104 0.652881
327 2 0.832056 0.397893 0.72177
205 1 0.831555 0.517371 0.635787
118 1 0.110233 0.496872 0.733373
323 2 0.130505 0.48143 0.592149
245 1 0.230351 0.679827 0.49902
138 1 0.0721585 0.595741 0.501532
68 1 0.0336024 0.682266 0.627251
247 1 0.168846 0.596801 0.632249
295 2 0.0316905 0.584744 0.724715
50 1 0.325337 0.567138 0.592738
190 1 0.460076 0.704339 0.683889
122 1 0.291962 0.711753 0.66422
261 1 0.422603 0.561216 0.728091
223 1 0.470154 0.609295 0.560961
209 1 0.379009 0.731341 0.540437
100 1 0.256852 0.538929 0.754773
280 1 0.620982 0.591341 0.507151
42 1 0.56671 0.54527 0.660731
53 1 0.597559 0.69763 0.617446
351 2 0.699809 0.553388 0.608166
104 1 0.753278 0.66209 0.566665
166 1 0.00365287 0.505993 0.628378
241 1 0.738481 0.635663 0.72108
90 1 0.905938 0.616332 0.550822
149 1 0.89675 0.634754 0.718779
62 1 0.868435 0.770387 0.632785
255 1 0.0870464 0.756928 0.508088
107 1 0.102605 0.912724 0.529044
142 1 0.138872 0.787699 0.702282
140 1 0.176481 0.971552 0.667784
240 1 0.227928 0.816989 0.575654
58 1 0.24134 0.96873 0.516007
188 1 0.361917 0.895121 0.574286
224 1 0.29805 0.875235 0.710746
342 2 0.38866 0.802108 0.650562
186 1 0.444679 0.931691 0.694088
171 1 0.735785 0.0194184 0.641624
244 1 0.511456 0.821951 0.607253
266 1 0.518479 0.980802 0.557468
162 1 0.682817 0.791331 0.5154
99 1 0.719056 0.783606 0.679421
338 2 0.631888 0.863632 0.620952
257 1 0.57349 0.832018 0.745493
267 1 0.00501376 1.00513 0.692432
65 1 -0.000540688 0.838592 0.635176
37 1 0.94189 0.969558 0.559161
306 2 0.962026 0.754259 0.539722
131 1 0.810617 0.901399 0.555092
66 1 0.864658 0.92261 0.696688
26 1 0.237165 0.18748 0.768224
195 1 0.0423019 0.112117 0.968366
49 1 0.184088 0.0986291 0.896605
334 2 0.0665902 0.153143 0.846019
11 1 0.0523373 0.0100294 0.84611
20 1 0.29477 0.0302885 0.752349
231 1 0.404947 0.186408 0.783873
57 1 0.345871 0.0870557 0.895326
256 1 0.468055 0.0228334 0.823161
354 2 0.252697 0.199094 0.927323
73 1 0.38563 0.223669 0.973202
126 1 0.516917 0.179392 0.903794
355 2 0.250243 0.991429 0.933674
228 1 0.492972 0.0490931 0.982427
16 1 0.637932 0.147895 0.994862
217 1 0.620607 0.0761883 0.833627
204 1 0.661095 0.22707 0.858689
309 2 0.725909 0.116714 0.896266
12 1 0.754601 0.0422827 -0.00416626
21 1 0.814828 0.214537 0.862688
96 1 0.792564 0.0567868 0.805116
110 1 0.9564 0.117343 0.785868
67 1 0.966492 0.226821 0.904008
226 1 0.89427 0.0807271 0.928666
227 1 0.139764 0.253477 0.882976
234 1 0.0393964 0.259729 0.758362
292 2 0.17313 0.378256 0.959652
31 1 0.0858414 0.400916 0.856191
305 2 0.206133 0.430182 0.833214
341 2 0.369656 0.349958 0.988955
250 1 0.272442 0.332843 0.882037
141 1 0.434926 0.332095 0.867102
346 2 0.479543 0.416124 0.954725
9 1 0.348223 0.481316 0.877749
184 1 0.59493 0.374533 0.865485
320 2 0.514014 0.266952 0.78197
168 1 0.735851 0.42661 0.928285
135 1 0.746109 0.33901 0.803731
105 1 0.949924 0.485819 0.764545
336 2 0.976237 0.348962 0.93078
124 1 0.854063 0.331281 0.96981
89 1 0.91557 0.349188 0.811877
6 1 0.918258 0.467274 0.916192
83 1 0.80849 0.503732 0.803301
302 2 0.0882449 0.590666 0.980916
123 1 0.0418722 0.571503 0.868609
200 1 0.180589 0.516724 0.92577
157 1 0.166557 0.690033 0.953361
139 1 0.157505 0.645656 0.796108
74 1 0.0123742 0.701179 0.948618
319 2 0.35916 0.675576 0.761653
117 1 0.428805 0.554027 -0.00526412
353 2 0.465846 0.684446 0.974461
127 1 0.303551 0.628244 0.865394
191 1 0.451483 0.655893 0.845692
132 1 0.355727 0.753794 0.949772
47 1 0.497888 0.501393 0.852352
14 1 0.648635 0.522508 0.817862
176 1 0.587304 0.671597 0.771017
5 1 0.581199 0.622121 0.925571
61 1 0.742269 0.634698 0.883508
210 1 0.0211313 0.711248 0.785151
145 1 0.893159 0.610926 0.871432
333 2 0.0838866 0.915584 0.753267
146 1 0.130727 0.978113 0.976118
63 1 0.189994 0.93186 0.832632
265 1 0.10054 0.813929 0.859485
285 1 0.249349 0.777494 0.82258
212 1 0.240167 0.854428 0.956229
102 1 0.406729 0.800416 0.799729
239 1 0.350878 0.931592 0.856392
339 2 0.489008 0.895432 0.829731
15 1 0.452197 0.879749 0.956076
289 2 0.603639 -0.00429263 0.988856
329 2 0.58124 0.858062 0.974684
78 1 0.538488 0.771285 0.893075
150 1 0.728485 0.917166 0.768009
211 1 0.714543 0.899359 0.981255
197 1 0.695007 0.797721 0.858262
271 1 0.599085 0.939155 0.87352
357 2 0.718505 0.989934 0.88294
194 1 0.841335 0.785072 0.783599
316 2 0.92177 0.996266 0.809729
133 1 0.981843 0.891052 0.948892
137 1 0.824553 0.763374 0.945343
18 1 0.975873 0.872683 0.795178
345 2 0.938069 0.786462 0.891969
193 1 0.833246 0.901339 0.886246
ITEM: TIMESTEP
2000000
ITEM: NUMBER OF ATOMS
360
ITEM: BOX BOUNDS pp pp pp
0.0000000000000000e+00 6.6943295008216896e+00
0.0000000000000000e+00 6.6943295008216896e+00
0.0000000000000000e+00 6.6943295008216896e+00
ITEM: ATOMS id type xs ys zs
161 1 0.141452 0.164635 0.16917
322 2 0.149814 0.111469 0.0564804
238 1 0.0463161 0.0691967 0.245163
75 1 0.994971 0.115097 0.103397
71 1 0.257013 0.0577542 0.0844741
208 1 0.25167 0.206817 0.0539091
299 2 0.267929 0.148967 0.177218
57 1 0.409398 0.166778 0.123013
207 1 0.341734 0.0410111 0.208924
307 2 0.448206 0.254275 0.20156
158 1 0.466212 0.985587 0.122391
325 2 0.495525 0.183294 0.00745135
252 1 0.566171 0.125105 0.126112
30 1 0.75085 0.111469 0.14541
51 1 0.665694 0.244805 0.171378
289 2 0.623936 0.231588 0.0273601
272 1 0.639153 0.103948 0.277469
328 2 0.734553 0.0144076 0.0275238
286 1 0.895582 0.0959948 0.231497
84 1 0.882873 0.213106 0.124158
41 1 0.855873 0.0457953 0.0549895
67 1 0.0368318 0.254795 0.0973459
56 1 0.17729 0.353989 0.0718047
153 1 0.114993 0.310023 0.230097
124 1 0.0366504 0.411565 0.0548451
287 1 0.137766 0.486086 0.147284
284 1 0.179369 0.484251 0.000315638
303 2 0.0200082 0.464007 0.175775
13 1 0.273689 0.285335 0.184169
232 1 0.308689 0.480424 0.117211
130 1 0.398588 0.382251 0.195289
9 1 0.375287 0.298506 0.0467619
126 1 0.485037 0.42205 0.0304482
144 1 0.530547 0.294525 0.0947945
318 2 0.665632 0.377315 0.128452
181 1 0.55301 0.384002 0.210467
27 1 0.688624 0.463053 0.217507
92 1 0.604486 0.486484 0.0926931
256 1 0.62711 0.371247 0.99108
88 1 0.759668 0.435706 0.0512795
16 1 0.755181 0.256692 0.0423097
180 1 0.792694 0.339505 0.186013
87 1 0.958126 0.352871 0.19704
216 1 0.898309 0.351592 0.0588824
225 1 0.892243 0.495179 0.157409
313 2 0.82709 0.441493 0.25042
108 1 0.081224 0.698185 0.111706
345 2 0.144627 0.605408 0.189929
93 1 0.0265899 0.578842 0.241923
132 1 0.233746 0.604806 0.0910053
82 1 1.00074 0.567997 0.0751764
69 1 0.0385417 0.73879 0.263025
281 1 0.212142 0.74679 0.00833898
44 1 0.463458 0.530837 0.150435
301 2 0.389612 0.6479 0.116684
117 1 0.308698 0.607925 0.217049
155 1 0.46424 0.698143 0.21515
156 1 0.318671 0.74343 0.139038
78 1 0.351752 0.669256 0.995159
23 1 0.494975 0.605872 0.0123079
312 2 0.576622 0.524547 0.238085
125 1 0.603412 0.634731 0.15385
179 1 0.675244 0.587264 -0.000421673
324 2 0.735892 0.554713 0.122759
268 1 0.594712 0.714041 1.01148
106 1 0.758995 0.69536 0.155832
28 1 0.923628 0.67821 0.17325
177 1 0.838697 0.600359 0.0405622
137 1 0.957509 0.694503 0.0146068
187 1 0.802736 0.578665 0.24357
236 1 0.180841 0.992334 0.216382
60 1 0.0738488 0.987506 0.0989677
221 1 0.166334 0.853044 0.14025
133 1 0.0111661 0.828625 0.10643
10 1 0.051113 0.900598 0.255725
228 1 0.206599 0.932693 0.00731668
334 2 0.0733919 0.925824 0.986812
86 1 0.460878 0.75741 0.0750404
297 2 0.408684 0.820695 0.196697
243 1 0.332724 0.902569 0.107841
353 2 0.576959 0.755134 0.136074
314 2 0.563153 0.993012 0.215888
46 1 0.63325 0.964187 0.104595
230 1 0.523516 0.858009 0.181869
143 1 0.683381 0.821554 0.110024
197 1 0.533943 0.876701 0.0168017
237 1 0.652812 0.916152 0.259492
262 1 0.928588 0.96171 0.164137
226 1 0.775931 0.949761 0.152413
254 1 0.855709 0.797919 0.0829674
203 1 0.946598 0.926374 0.0101126
12 1 0.769538 0.897578 0.0031958
321 2 0.747704 0.816437 0.231508
356 2 0.109286 0.176876 0.293416
148 1 0.158877 0.151406 0.432106
219 1 0.228664 0.116564 0.294654
103 1 0.480535 0.0938106 0.248884
4 1 0.359661 0.191318 0.274037
339 2 0.311447 0.164718 0.408285
315 2 0.469707 0.0276672 0.457702
53 1 0.391437 0.0738494 0.369402
260 1 0.283717 0.0552653 0.489295
189 1 0.271552 0.225305 0.511888
116 1 0.545705 0.143746 0.429875
277 1 0.716624 0.107583 0.415817
329 2 0.641799 0.200821 0.354266
266 1 0.544723 0.00215951 0.354106
214 1 0.0142356 0.128898 0.398374
120 1 0.990022 0.218564 0.262873
25 1 0.756448 0.206087 0.280567
244 1 0.869377 0.140737 0.378068
173 1 0.772084 0.0151274 0.302
220 1 0.829274 0.992908 0.460012
242 1 0.0754178 0.285236 0.376394
118 1 0.0716434 0.4325 0.304422
70 1 0.160443 0.442199 0.435484
134 1 0.235739 0.260363 0.344568
36 1 0.24842 0.43053 0.256768
80 1 0.421627 0.246386 0.400774
351 2 0.377066 0.500588 0.237286
154 1 0.307492 0.382402 0.417748
332 2 0.337685 0.323375 0.297292
280 1 0.447794 0.384859 0.336178
310 2 0.409744 0.471091 0.450508
113 1 0.546196 0.233847 0.274703
190 1 0.601385 0.459609 0.346015
213 1 0.563793 0.306744 0.419978
170 1 0.670502 0.331828 0.299457
293 2 0.56155 0.41664 0.482332
209 1 0.753639 0.26722 0.426835
90 1 -0.00104094 0.41081 0.44276
178 1 0.940214 0.260097 0.466775
101 1 0.759369 0.480932 0.345636
352 2 0.976598 0.344531 0.320576
323 2 0.866115 0.4241 0.417341
111 1 0.852642 0.332565 0.329283
138 1 0.917137 0.487527 0.330712
206 1 0.177743 0.710908 0.25955
114 1 0.162085 0.55423 0.331036
160 1 0.0876326 0.70273 0.417045
95 1 0.196469 0.604315 0.467593
68 1 0.0313429 0.555232 0.431226
163 1 0.309598 0.529409 0.36011
257 1 0.280324 0.682649 0.371329
294 2 0.41188 0.647426 0.325838
245 1 0.411613 0.605249 0.452647
79 1 0.475169 0.542802 0.322403
121 1 0.530252 0.694356 0.355899
196 1 0.672903 0.602633 0.3075
291 2 0.644835 0.668402 0.436924
35 1 0.557408 0.560665 0.45499
222 1 0.716114 0.561658 0.480293
65 1 0.8595 0.551195 0.471057
185 1 0.779026 0.720896 0.316216
311 2 0.802001 0.611653 0.384107
52 1 0.914693 0.642999 0.32592
171 1 0.776324 0.706372 0.484797
97 1 0.925203 0.683904 0.476683
201 1 0.103851 -0.0107693 0.396454
58 1 0.160582 0.834103 0.355317
344 2 0.139078 0.876106 0.490254
17 1 -0.00470139 0.83053 0.381598
223 1 0.359855 0.762723 0.477334
38 1 0.398869 0.785957 0.326291
59 1 0.290942 0.8429 0.242854
300 2 0.281632 0.827109 0.385158
147 1 0.421332 0.937419 0.275516
91 1 0.265753 0.963136 0.356705
248 1 0.411469 0.91791 0.428689
261 1 0.268716 0.893712 0.500391
350 2 0.485083 0.818404 0.462106
151 1 0.63192 0.75728 0.259134
241 1 0.682987 0.95456 0.416409
218 1 0.534163 0.848158 0.360217
45 1 0.669404 0.795397 0.424821