ITEM: TIMESTEP
0
ITEM: NUMBER OF ATOMS
360
ITEM: BOX BOUNDS pp pp pp
0.0000000000000000e+00 6.6943295008216896e+00
0.0000000000000000e+00 6.6943295008216896e+00
0.0000000000000000e+00 6.6943295008216896e+00
ITEM: ATOMS id type xs ys zs
151 1 0.164327 0.195395 0.0937316
38 1 0.0823787 0.0519768 0.109445
48 1 0.0525954 0.184647 0.209612
256 1 0.233987 0.0560948 0.116663
255 1 0.286123 0.194904 0.180592
17 1 0.30303 0.17436 0.0258511
159 1 0.413872 0.0776434 0.138858
170 1 0.340323 0.0215685 0.00500213
73 1 0.528655 0.171361 0.117362
139 1 0.679706 0.0614944 0.182494
156 1 0.659325 0.129761 0.000818904
28 1 0.670947 0.211431 0.133042
109 1 0.559153 0.0123931 0.10427
44 1 0.810597 0.117833 0.122665
165 1 0.980114 0.169537 0.082729
351 2 0.847831 0.0242995 0.0467252
203 1 0.924169 0.0153754 0.154919
289 2 0.884423 0.207389 0.159129
236 1 0.780049 0.248309 0.040954
112 1 0.76008 0.197184 0.247218
148 1 0.97852 0.0175886 0.00292156
347 2 0.035537 0.296736 0.00305447
214 1 0.113981 0.332786 0.0831189
267 1 0.220686 0.458035 0.0659755
40 1 0.0690592 0.385336 0.228236
328 2 0.180538 0.424944 0.182921
343 2 0.239859 0.30379 0.0535992
93 1 0.079088 0.482078 0.0877991
329 2 0.148874 0.274563 0.198103
13 1 0.275602 0.346999 0.184336
99 1 0.400841 0.275898 0.110315
58 1 0.415764 0.427278 0.178566
24 1 0.373106 0.480298 0.035247
188 1 0.674217 0.403828 0.113857
202 1 0.533783 0.333224 0.141741
66 1 0.572881 0.476668 0.239509
35 1 0.661297 0.333344 0.245845
1 1 0.632055 0.296898 0.00850786
155 1 0.762276 0.442493 0.242097
131 1 0.967743 0.48154 0.18572
240 1 0.83356 0.451349 0.0948445
263 1 0.947579 0.30887 0.104072
297 2 0.884001 0.398207 0.220609
243 1 0.803333 0.310288 0.164517
310 2 0.867692 0.355007 0.0125905
284 1 0.134524 0.539014 0.226589
283 1 0.0928361 0.648174 0.123438
22 1 0.228212 0.656903 0.232288
245 1 0.243066 0.61616 0.0834546
201 1 0.290308 0.521396 0.192606
313 2 0.407308 0.557209 0.167948
191 1 0.377543 0.680031 0.202685
114 1 0.417668 0.62046 0.0600611
249 1 0.532533 0.501533 0.0955619
200 1 0.532831 0.627077 0.187127
77 1 0.710523 0.548093 0.0556923
123 1 0.72393 0.707425 0.0589215
119 1 0.703506 0.576441 0.207723
108 1 0.58884 0.634427 0.0231676
168 1 0.648258 0.729216 0.191636
274 1 0.972838 0.573725 0.0110722
321 2 0.97019 0.65827 0.140442
33 1 0.860687 0.590595 0.11197
125 1 0.898361 0.72445 0.0719866
130 1 0.893489 0.718435 0.231129
354 2 0.777927 0.698037 0.203119
238 1 0.149654 0.931468 0.204281
174 1 0.177007 0.785928 0.148833
30 1 0.0854266 0.906804 0.044071
118 1 0.240375 0.907615 0.031063
61 1 0.0296712 0.802506 0.16725
315 2 0.0287964 0.939551 0.167369
166 1 0.0488027 0.756219 0.0212721
140 1 0.321366 0.750252 0.0881826
233 1 0.327935 0.902918 0.169602
97 1 0.400665 0.874684 0.0316717
279 1 0.499454 0.758926 0.117462
228 1 0.473379 0.921142 0.202055
330 2 0.455257 0.993048 0.0428317
178 1 0.617949 0.855121 0.105747
122 1 0.7385 0.979218 0.0623117
52 1 0.810014 0.974648 0.238133
154 1 0.785081 0.828129 0.11266
36 1 0.899553 0.8662 0.21911
252 1 0.925835 0.876417 0.0548109
100 1 0.0375255 0.0356973 0.268009
175 1 0.180833 0.0961891 0.257069
76 1 0.122302 0.011232 0.387685
308 2 0.153922 0.215274 0.455176
121 1 0.24325 0.120977 0.401088
253 1 0.185688 0.236074 0.313791
133 1 0.0523137 0.170311 0.378206
239 1 0.426822 0.215807 0.258725
3 1 0.331483 0.0559287 0.25316
306 2 0.303226 0.170969 0.30737
136 1 0.399459 0.16114 0.398992
301 2 0.486258 0.248646 0.362481
20 1 0.410125 0.0132463 0.383121
199 1 0.324516 0.0547744 0.495755
335 2 0.520333 0.0744388 0.388274
92 1 0.504225 0.0562193 0.260112
260 1 0.594919 0.192748 0.271059
194 1 0.556068 0.188605 0.441308
208 1 0.7088 0.21643 0.3915
246 1 0.653084 0.0510902 0.340925
51 1 0.686098 0.0859686 0.484052
285 1 0.911044 0.128477 0.266018
264 1 0.809599 0.110076 0.376135
107 1 0.945153 0.0142927 0.392332
258 1 0.198777 0.411693 0.313996
21 1 0.169069 0.356885 0.461254
53 1 0.0640206 0.325375 0.361531
272 1 0.00807108 0.475116 0.357432
302 2 0.0427819 0.412617 0.472768
116 1 0.313866 0.302304 0.330876
296 2 0.348842 0.415927 0.293758
59 1 0.473414 0.356598 0.295688
223 1 0.309688 0.423575 0.423463
265 1 0.423403 0.322189 0.439126
221 1 0.48902 0.45893 0.420171
216 1 0.281442 0.260255 0.481496
47 1 0.585519 0.337269 0.404824
134 1 0.659195 0.489977 0.359618
96 1 0.738003 0.361992 0.449885
185 1 0.932983 0.284388 0.262717
195 1 0.86939 0.258118 0.398866
295 2 0.793648 0.304398 0.297553
275 1 0.882789 0.399784 0.355758
324 2 0.140958 0.612426 0.339704
23 1 0.146385 0.517946 0.427684
85 1 0.203999 0.700431 0.407433
60 1 0.0358927 0.647845 0.429294
41 1 0.00386459 0.609068 0.279982
226 1 0.0975855 0.722186 0.281983
157 1 0.407815 0.525355 0.296744
161 1 0.272807 0.562008 0.352482
242 1 0.406082 0.597456 0.446035
86 1 0.363834 0.715493 0.368271
331 2 0.453622 0.641792 0.319252
314 2 0.251359 0.563438 0.481656
309 2 0.531582 0.566542 0.391388
138 1 0.597526 0.636309 0.312855
102 1 0.642036 0.605293 0.457075
128 1 0.749353 0.666646 0.329841
105 1 0.520227 0.708304 0.429887
318 2 0.79745 0.503981 0.371566
27 1 0.855715 0.569275 0.272941
152 1 0.893965 0.697345 0.373828
164 1 0.895606 0.564596 0.429507
67 1 0.79219 0.674553 0.475204
132 1 0.0420134 0.887643 0.303915
137 1 0.140367 0.82898 0.398414
124 1 0.029506 0.905245 0.457708
90 1 0.208931 0.912002 0.494737
211 1 0.494279 0.761866 0.282865
183 1 0.282195 0.944928 0.358719
4 1 0.254207 0.816275 0.282059
340 2 0.285899 0.824547 0.408946
197 1 0.388779 0.854563 0.326897
317 2 0.338795 0.928454 0.467131
218 1 0.423109 0.831579 0.477344
262 1 0.655627 0.916049 0.256796
57 1 0.634902 0.78135 0.349957
196 1 0.52598 0.910736 0.347373
49 1 0.661786 0.92593 0.421502
332 2 0.552831 0.843957 0.454817
180 1 0.535662 0.968846 0.497856
84 1 0.663273 0.772659 0.493806
355 2 0.942536 0.971165 0.281599
268 1 0.776739 0.807676 0.275394
341 2 0.755901 0.775618 0.398427
350 2 0.764019 0.92055 0.354702
342 2 0.961021 0.784035 0.308502
288 1 0.871105 0.857092 0.380053
277 1 0.933211 0.785155 0.488622
278 1 0.814634 0.988853 0.465836
357 2 0.175233 0.043201 0.503978
95 1 0.0562904 0.124678 0.514328
162 1 0.0910513 0.126331 0.674828
163 1 0.205374 0.145187 0.564116
46 1 0.232282 0.11282 0.731097
326 2 0.405809 0.226151 0.525191
6 1 0.462054 0.0940956 0.525914
14 1 0.341644 0.1716 0.618689
26 1 0.393759 0.0364483 0.693793
82 1 0.487146 0.168774 0.667749
101 1 0.54702 0.0298732 0.636903
250 1 0.623694 0.185492 0.598363
333 2 0.668658 0.0835202 0.643647
9 1 0.746357 0.20839 0.690304
244 1 0.728591 0.0109592 0.723726
299 2 0.995862 0.217105 0.604523
193 1 0.956419 0.018152 0.564597
215 1 0.885333 0.132497 0.501596
63 1 0.790653 0.0894052 0.600074
247 1 0.77116 0.232004 0.537783
173 1 0.920111 0.137319 0.675936
75 1 0.98299 0.00513487 0.709915
115 1 0.243353 0.270096 0.689999
98 1 0.110812 0.263455 0.57738
286 1 0.166341 0.398186 0.678478
348 2 0.129344 0.475135 0.5657
229 1 0.0431335 0.27859 0.722338
360 2 0.227931 0.319241 0.58076
190 1 0.249404 0.459432 0.564395
207 1 0.038724 0.40672 0.607963
305 2 0.371397 0.49527 0.508278
225 1 0.411926 0.30237 0.708957
10 1 0.330694 0.434133 0.72579
259 1 0.371492 0.372042 0.583419
320 2 0.487532 0.400088 0.528524
176 1 0.507871 0.281971 0.5746
322 2 0.641448 0.280513 0.520305
69 1 0.626972 0.431288 0.513044
31 1 0.51591 0.424655 0.659385
153 1 0.65917 0.335883 0.638681
143 1 0.650005 0.450569 0.733881
251 1 0.963172 0.282509 0.500784
64 1 0.912698 0.419094 0.539323
172 1 0.767362 0.457192 0.647228
344 2 0.789428 0.355784 0.563847
280 1 0.894129 0.297963 0.638302
110 1 0.89597 0.44663 0.722113
294 2 0.792337 0.334185 0.718688
147 1 0.0198833 0.533661 0.520229
80 1 0.153767 0.624361 0.553212
271 1 0.215755 0.559261 0.690648
12 1 0.0701893 0.555441 0.665869
222 1 0.131178 0.716059 0.713388
87 1 0.00948454 0.681 0.612693
319 2 0.428938 0.668195 0.548404
298 2 0.422849 0.520898 0.680886
70 1 0.299941 0.746827 0.523354
186 1 0.333355 0.595554 0.582005
127 1 0.286571 0.698239 0.678546
89 1 0.43767 0.641522 0.680044
43 1 0.484 0.543014 0.562557
304 2 0.53903 0.554855 0.675078
266 1 0.637963 0.554647 0.597887
145 1 0.68369 0.707296 0.631028
220 1 0.542125 0.694809 0.580966
213 1 0.638507 0.60683 0.74837
37 1 0.776489 0.513372 0.500238
353 2 0.913617 0.656707 0.518662
111 1 0.892167 0.560407 0.594936
300 2 0.769326 0.60851 0.587366
54 1 0.785085 0.59606 0.715375
19 1 0.858267 0.719994 0.610447
254 1 0.924618 0.615789 0.737771
117 1 0.0998436 0.780952 0.542974
230 1 0.0979572 0.956911 0.604903
217 1 0.208756 0.833733 0.645842
56 1 0.245863 0.99753 0.6198
232 1 0.0624974 0.875667 0.749401
169 1 0.422521 0.788239 0.633536
2 1 0.402241 0.946792 0.578839
292 2 0.312449 0.853868 0.581295
261 1 0.328556 0.874305 0.733234
219 1 0.488926 0.913412 0.739289
94 1 0.569093 0.841722 0.589258
231 1 0.546435 0.760929 0.722925
287 1 0.685473 0.95062 0.580712
187 1 0.633705 0.892773 0.723383
359 2 0.903757 0.910993 0.501866
160 1 0.968012 0.860203 0.616467
177 1 0.770539 0.822919 0.676829
50 1 0.801998 0.836917 0.518677
120 1 0.832279 0.944426 0.61579
307 2 0.18717 0.178811 0.977373
65 1 0.0544887 0.164766 0.951553
206 1 0.151434 0.211844 0.82511
311 2 0.135955 0.0906768 0.847214
179 1 0.0112966 0.135652 0.79932
126 1 0.145315 0.02725 0.965088
45 1 0.455307 0.218763 0.984042
32 1 0.250487 0.115906 0.889423
269 1 0.419792 0.0230059 0.840492
181 1 0.352448 0.19002 0.782933
323 2 0.299394 0.230811 0.911641
346 2 0.383919 0.118214 0.940095
282 1 0.496476 0.162573 0.839464
290 2 0.292047 0.00318773 0.755593
74 1 0.50343 0.0695551 0.963639
192 1 0.623495 0.124942 0.754929
337 2 0.520248 0.061406 0.76221
339 2 0.599441 0.105032 0.884252
171 1 0.697074 0.202542 0.872444
210 1 0.716715 0.0352126 0.890242
334 2 0.610303 0.011809 0.992163
356 2 0.752316 0.129707 0.78766
327 2 0.934979 0.103838 0.905771
72 1 0.810548 0.128706 0.957079
78 1 0.861766 0.0557199 0.801538
91 1 0.852173 0.224142 0.812705
129 1 0.912819 0.242158 0.958876
104 1 0.0329897 0.304221 0.870396
88 1 0.175163 0.309205 0.940969
336 2 0.141683 0.344478 0.814855
235 1 0.10517 0.460999 0.925404
273 1 0.042513 0.420263 0.769323
79 1 0.208798 0.463757 0.821905
358 2 0.241026 0.421547 0.937014
198 1 0.340009 0.344332 0.984291
11 1 0.278216 0.33666 0.834414
316 2 0.458013 0.404555 0.771915
113 1 0.368735 0.46248 0.875755
146 1 0.433412 0.301665 0.860321
39 1 0.485935 0.364258 0.994069
345 2 0.626701 0.453117 0.993938
281 1 0.572274 0.290178 0.754973
42 1 0.581826 0.408128 0.872302
349 2 0.570674 0.261065 0.896666
18 1 0.729942 0.345729 0.822032
15 1 0.74681 0.420849 0.952897
338 2 0.934792 0.320672 0.777083
312 2 0.796845 0.28364 0.916065
135 1 0.97225 0.419594 0.996949
25 1 0.877446 0.379745 0.873135
325 2 0.868591 0.492526 0.94817
234 1 0.0760357 0.586177 0.809924
182 1 0.23185 0.651076 0.843859
68 1 0.132954 0.604275 0.974887
7 1 0.0970968 0.720922 0.870667
227 1 0.349362 0.568966 0.776756
257 1 0.268238 0.543978 0.938624
352 2 0.308564 0.655768 0.971746
184 1 0.404719 0.624633 0.907432
241 1 0.408493 0.742241 0.794037
167 1 0.495132 0.529515 0.797849
291 2 0.684885 0.740366 0.753872
16 1 0.502587 0.520329 0.952096
205 1 0.649003 0.551589 0.907643
62 1 0.54579 0.65597 0.860327
141 1 0.685332 0.716506 0.884146
303 2 0.746923 0.618595 0.839478
144 1 0.798196 0.50915 0.83335
150 1 0.812266 0.628991 0.951017
189 1 0.819599 0.720091 0.791071
29 1 0.953427 0.520744 0.867655
34 1 0.947111 0.690746 0.912003
71 1 0.162253 0.979673 0.763716
270 1 0.187821 0.752763 0.989374
81 1 0.0333012 0.989083 0.86085
55 1 0.222311 0.796314 0.804694
8 1 0.134117 0.869226 0.902649
204 1 0.271949 0.955166 0.888056
237 1 0.324104 0.770513 0.923055
83 1 0.473067 0.752867 0.958052
103 1 0.424759 0.885133 0.884973
293 2 0.611119 0.766297 0.982813
106 1 0.542302 0.905952 0.978845
5 1 0.566636 0.983459 0.845579
142 1 0.685603 0.867883 0.970673
224 1 0.570995 0.824586 0.851281
149 1 0.736807 0.874238 0.817105
248 1 0.960137 0.764567 0.759249
212 1 0.856708 0.947518 0.94054
276 1 0.821935 0.785126 0.942541
209 1 0.974405 0.843311 0.909237
158 1 0.882168 0.894994 0.769627
ITEM: TIMESTEP
70000
ITEM: NUMBER OF ATOMS
360
ITEM: BOX BOUNDS pp pp pp
0.0000000000000000e+00 6.6943295008216896e+00
0.0000000000000000e+00 6.6943295008216896e+00
0.0000000000000000e+00 6.6943295008216896e+00
ITEM: ATOMS id type xs ys zs
48 1 0.093189 0.0963697 0.12035
36 1 0.00797657 0.0466457 0.250815
175 1 0.154596 0.247794 0.139991
236 1 0.0320443 0.228689 0.241521
100 1 0.183596 0.0554582 0.256413
17 1 0.25246 0.135791 0.0882986
73 1 0.405344 0.13845 0.0255684
59 1 0.492858 0.0780827 0.158314
255 1 0.343306 0.138654 0.213143
88 1 0.352454 0.262445 0.105971
13 1 0.274203 0.273238 0.236647
339 2 0.336915 0.0150176 0.126543
156 1 0.532893 0.228729 0.0654203
355 2 0.590044 0.0994934 0.0875551
265 1 0.603669 0.180211 0.190698
49 1 0.688505 0.0353761 0.197145
28 1 0.683259 0.198927 0.0494485
246 1 0.552696 0.984287 0.267195
52 1 0.800129 0.130768 0.148855
243 1 0.946191 0.183487 0.117219
203 1 0.803112 0.113226 0.995788
288 1 0.84456 -0.00168771 0.235225
188 1 0.856349 0.264242 0.0216962
129 1 0.033325 0.280985 0.0471782
234 1 0.140892 0.392654 0.0540203
283 1 0.114764 0.370727 0.241204
240 1 0.00248124 0.414345 0.13067
227 1 0.230053 0.470248 0.164789
201 1 0.0532127 0.507322 0.244802
214 1 0.226259 0.279097 0.00927049
358 2 0.248885 0.354837 0.141487
343 2 0.434515 0.387291 0.0754724
267 1 0.369864 0.398362 0.20012
202 1 0.313721 0.425716 0.0444738
191 1 0.526055 0.527276 0.0281025
109 1 0.489876 0.289519 0.187952
58 1 0.512527 0.475334 0.22185
24 1 0.668933 0.446971 0.192874
113 1 0.569129 0.405797 0.0916403
335 2 0.617091 0.295537 0.137114
45 1 0.724079 0.365417 0.0229986
310 2 0.602462 0.290723 0.982162
198 1 0.746731 0.288428 0.150189
312 2 0.925037 0.317177 0.108679
35 1 0.881802 0.275574 0.220165
15 1 0.839714 0.413265 0.121553
77 1 0.876425 0.524765 0.216556
325 2 0.919255 0.505846 0.0913214
93 1 0.102806 0.550909 0.104557
174 1 0.245927 0.609814 0.0830579
245 1 0.101046 0.701753 0.0857954
140 1 0.167669 0.614514 0.236515
307 2 0.191217 0.721236 0.00569303
314 2 0.341642 0.627631 0.168044
157 1 0.400207 0.528261 0.116103
211 1 0.446019 0.673481 0.104193
118 1 0.323102 0.751318 0.0251451
257 1 0.344823 0.585334 0.982514
345 2 0.758449 0.509308 0.13185
144 1 0.73931 0.706524 0.982127
33 1 0.582002 0.606426 0.16308
154 1 0.716246 0.703404 0.143576
142 1 0.582312 0.694759 0.021832
119 1 0.714039 0.585177 0.233085
22 1 0.973208 0.614953 0.160099
150 1 0.836139 0.603423 0.0765584
315 2 0.919546 0.725674 0.0361097
166 1 0.992568 0.570704 0.995154
61 1 0.962789 0.765048 0.142755
252 1 0.199609 0.976539 0.123893
238 1 0.247054 0.754307 0.157106
342 2 0.0821739 0.973572 0.161039
126 1 0.0901035 0.847385 0.114608
65 1 0.0741807 0.981065 0.015107
306 2 0.213142 0.867914 0.169442
233 1 0.377759 0.794182 0.203393
228 1 0.449424 0.979007 0.0462376
3 1 0.320319 0.893721 0.0817454
262 1 0.449184 0.925686 0.185642
38 1 0.315465 0.965513 0.235456
256 1 0.563585 0.756037 0.163967
301 2 0.622743 0.809763 0.349141
178 1 0.672354 0.833134 0.0772411
106 1 0.584524 0.944875 0.126537
57 1 0.686712 0.857904 0.231448
44 1 0.796989 0.945455 0.0986603
165 1 0.938684 0.0234844 0.0721367
189 1 0.960761 0.922037 0.184946
130 1 0.845387 0.835 0.22805
270 1 0.961978 0.874474 0.0380748
40 1 0.162986 0.203124 0.304172
289 2 0.151277 0.0904259 0.381809
253 1 0.178341 0.171147 0.474104
285 1 0.0322361 0.135007 0.399087
76 1 0.287425 0.100499 0.365716
121 1 0.276779 0.253437 0.39209
92 1 0.41534 0.0336279 0.323639
326 2 0.380983 0.175691 0.348867
216 1 0.431939 0.185119 0.451504
320 2 0.399487 0.0557109 0.445091
176 1 0.504493 0.166739 0.306124
333 2 0.631965 0.0699849 0.319581
322 2 0.566383 0.191235 0.48067
194 1 0.697984 0.0672365 0.489419
260 1 0.643812 0.177119 0.382892
20 1 0.53802 0.0673198 0.428501
264 1 0.757926 0.0688191 0.358257
185 1 0.908005 0.148142 0.307464
162 1 0.810255 0.177742 0.463856
332 2 0.930194 0.988443 0.51073
50 1 0.908054 0.00991605 0.385923
296 2 0.185215 0.478876 0.289297
328 2 0.170223 0.330829 0.360069
251 1 0.0482267 0.295479 0.377
21 1 0.0899981 0.43643 0.39594
163 1 0.241376 0.389667 0.47566
275 1 0.105166 0.331038 0.521201
258 1 0.276486 0.397824 0.318542
116 1 0.407918 0.291532 0.314632
340 2 0.317045 0.475356 0.420473
221 1 0.425689 0.441179 0.360318
298 2 0.519886 0.379264 0.304463
31 1 0.54319 0.304638 0.409829
259 1 0.622046 0.316036 0.265603
225 1 0.705245 0.32109 0.406381
200 1 0.615279 0.447741 0.352023
220 1 0.534517 0.442368 0.483552
133 1 0.887785 0.279238 0.398694
239 1 0.810564 0.402692 0.280539
112 1 0.747452 0.203986 0.283813
263 1 0.970381 0.379388 0.282971
96 1 0.800512 0.443519 0.420206
64 1 0.95343 0.412207 0.4866
297 2 0.0879089 0.562444 0.357714
284 1 0.203349 0.531485 0.405078
53 1 0.0319237 0.584733 0.471095
70 1 0.141618 0.687767 0.39004
4 1 0.996525 0.645367 0.308303
60 1 0.00471162 0.746173 0.431186
226 1 0.31783 0.549051 0.277259
102 1 0.454448 0.614425 0.250872
105 1 0.444836 0.717198 0.359116
242 1 0.282643 0.685416 0.321296
138 1 0.368999 0.5797 0.436902
23 1 0.248138 0.677372 0.514387
168 1 0.590301 0.695103 0.290821
331 2 0.596046 0.556291 0.286719
309 2 0.686751 0.609044 0.359794
134 1 0.523807 0.566232 0.385337
66 1 0.663765 0.561355 0.460885
155 1 0.944791 0.505074 0.359319
295 2 0.733754 0.499147 0.317344
128 1 0.82303 0.603782 0.342431
131 1 0.852992 0.683506 0.212671
318 2 0.912731 0.648072 0.423671
30 1 0.0910111 0.773585 0.25765
107 1 0.12518 0.919191 0.27026
197 1 0.229596 0.951172 0.391861
277 1 0.118909 0.839472 0.396634
183 1 0.0555313 0.9867 0.422016
137 1 0.245238 0.83117 0.301482
2 1 0.279076 0.819808 0.455939
196 1 0.385219 0.885668 0.368508
136 1 0.445799 0.93917 0.493388
334 2 0.521591 0.684116 0.453494
94 1 0.528375 0.815038 0.447374
86 1 0.517897 0.840545 0.281796
41 1 0.735814 0.731692 0.31591
350 2 0.505696 0.9412 0.381767
180 1 0.638605 0.933929 0.394827
67 1 0.648773 0.720539 0.441267
354 2 0.744849 0.812695 0.429097
321 2 0.946182 0.751114 0.274592
132 1 0.975198 0.862855 0.320766
152 1 0.791234 0.908118 0.355276
87 1 0.858417 0.767885 0.37093
63 1 0.77653 0.933594 0.500005
90 1 0.913186 0.868711 0.467076
317 2 0.161245 0.0206084 0.494833
359 2 0.0622738 0.190443 0.512266
124 1 0.195837 0.084914 0.603056
179 1 0.0311357 0.144226 0.66669
357 2 0.133278 0.172077 0.730377
199 1 0.159606 0.223379 0.618737
56 1 0.302892 0.994831 0.508159
308 2 0.296264 0.132478 0.527789
282 1 0.415344 0.0939484 0.579342
360 2 0.457089 0.2262 0.566496
14 1 0.344456 0.177759 0.678178
177 1 0.481913 0.0558727 0.722398
195 1 0.676189 0.218873 0.527466
208 1 0.494711 0.225941 0.715239
6 1 0.563912 0.134013 0.606452
287 1 0.62733 0.00926904 0.679161
9 1 0.716629 0.12746 0.63665
353 2 0.721577 0.00405543 0.587192
278 1 0.948386 0.128643 0.52198
95 1 0.836405 0.0430698 0.588349
215 1 0.872362 0.161546 0.679274
311 2 0.949585 0.0464921 0.645411
299 2 0.793058 0.212639 0.578002
158 1 0.905957 1.00074 0.751056
192 1 0.753695 0.0475466 0.762764
223 1 0.100726 0.483436 0.552256
110 1 0.0742796 0.306608 0.741078
10 1 0.184001 0.371949 0.653465
336 2 0.25087 0.257406 0.695688
115 1 0.402257 0.333549 0.472917
206 1 0.304846 0.25255 0.55535
305 2 0.293837 0.411964 0.611476
266 1 0.431252 0.332759 0.637392
42 1 0.391719 0.463768 0.543578
143 1 0.259784 0.495154 0.719916
161 1 0.246859 0.521378 0.568726
181 1 0.408541 0.469584 0.68612
82 1 0.319151 0.349332 0.73753
47 1 0.563576 0.300046 0.55712
172 1 0.737219 0.297477 0.657531
213 1 0.549719 0.454989 0.628828
300 2 0.628096 0.243331 0.649555
69 1 0.68597 0.435106 0.550419
280 1 0.949969 0.277861 0.556427
207 1 0.0158968 0.397067 0.6405
153 1 0.809849 0.337572 0.527718
247 1 0.885429 0.339165 0.697721
254 1 0.836338 0.463552 0.620097
329 2 0.150619 0.604939 0.50668
286 1 0.0770053 0.501073 0.748923
85 1 0.0726569 0.709209 0.554058
190 1 0.0214727 0.681522 0.701677
147 1 0.146121 0.614106 0.658461
348 2 0.132718 0.726782 0.73359
98 1 0.975154 0.55114 0.632175
89 1 0.408208 0.725676 0.516397
186 1 0.367649 0.608716 0.631241
218 1 0.439412 0.751422 0.659696
302 2 0.302988 0.738059 0.627949
29 1 0.701492 0.471197 0.701731
84 1 0.796879 0.657758 0.47306
241 1 0.508459 0.605496 0.716523
43 1 0.500025 0.588458 0.535208
291 2 0.70855 0.682118 0.561075
37 1 0.639664 0.589358 0.613485
344 2 0.762327 0.547141 0.540958
117 1 0.882149 0.541702 0.495406
324 2 0.948885 0.471124 0.724113
164 1 0.927214 0.676542 0.550249
34 1 0.795695 0.630963 0.6337
303 2 0.978945 0.782253 0.625911
319 2 0.153291 0.771193 0.495456
80 1 0.181055 0.783184 0.627252
230 1 0.0501209 0.0183754 0.571039
261 1 0.186068 0.900151 0.530372
222 1 0.0717307 0.836077 0.741059
160 1 0.193965 0.931258 0.693708
78 1 0.0555211 1.00021 0.754626
101 1 0.326613 0.0100202 0.683982
304 2 0.46987 0.823464 0.568043
19 1 0.594418 0.956522 0.542905
169 1 0.336137 0.862337 0.587415
219 1 0.347313 0.84705 0.738583
187 1 0.506775 0.905296 0.669805
145 1 0.701199 0.745676 0.684511
51 1 0.668914 0.833897 0.53571
5 1 0.571108 0.721536 0.577758
149 1 0.744398 0.900857 0.663563
341 2 0.618401 0.84848 0.653871
231 1 0.56273 0.767644 0.74338
27 1 0.806484 0.784673 0.542656
120 1 0.0433505 0.870135 0.556353
292 2 0.993989 0.918748 0.68255
111 1 0.862005 0.761823 0.685122
193 1 0.892363 0.900777 0.617057
8 1 0.216711 0.0875372 0.765847
104 1 0.133925 0.168278 0.986947
173 1 0.195745 0.234787 0.82122
81 1 0.064072 0.137662 0.845104
139 1 0.990079 0.0205942 0.898923
347 2 0.188022 0.0504317 0.0170902
346 2 0.333247 0.236605 0.967274
290 2 0.334856 0.114571 0.801582
159 1 0.279829 0.135795 0.902833
26 1 0.390468 0.224262 0.83646
97 1 0.431582 0.042537 0.880364
268 1 0.548674 0.104796 0.967289
170 1 0.676989 0.0207497 0.00856876
250 1 0.62222 0.151446 0.752929
337 2 0.509588 0.126455 0.823897
46 1 0.536673 0.240175 0.870007
171 1 0.688947 0.125828 0.884387
103 1 0.589329 0.0178317 0.834416
356 2 0.788592 0.217077 0.926897
327 2 0.964254 0.107721 0.77181
72 1 0.85911 0.11105 0.855905
91 1 0.975033 0.154237 0.974238
281 1 0.78356 0.220057 0.777584
244 1 0.938819 0.239495 0.804258
25 1 0.972955 0.395564 0.823917
273 1 0.187475 0.393188 0.806282
235 1 0.0822605 0.300713 0.899483
271 1 0.0938874 0.468715 0.907982
323 2 0.211104 0.396153 0.937477
229 1 0.312935 0.345098 0.900456
146 1 0.443704 0.310381 0.971107
11 1 0.252047 0.505893 0.896518
316 2 0.353676 0.446616 0.807604
184 1 0.430221 0.476109 0.917043
269 1 0.46383 0.371638 0.811871
99 1 0.564912 0.393357 0.922905
39 1 0.608738 0.328192 0.756273
276 1 0.716777 0.444115 0.864842
18 1 0.683965 0.279656 0.881916
135 1 0.963182 0.416912 0.987181
338 2 0.953681 0.27484 0.937235
294 2 0.763207 0.352829 0.76606
1 1 0.84307 0.332039 0.874628
12 1 0.838881 0.466701 0.782322
55 1 0.0266959 0.738103 0.967154
79 1 0.172726 0.595629 0.806039
182 1 0.145375 0.606598 0.963172
68 1 0.0220718 0.615443 0.841898
7 1 0.123365 0.733274 0.853592
313 2 0.199269 0.499165 0.0259528
237 1 0.258504 0.696272 0.73249
123 1 0.442652 0.69846 0.948615
167 1 0.364834 0.576768 0.82506
114 1 0.269448 0.68992 0.891103
62 1 0.397792 0.727823 0.808601
249 1 0.679379 0.554175 0.0478962
16 1 0.58103 0.476695 0.779815
205 1 0.661831 0.618829 0.757221
141 1 0.553149 0.61303 0.878455
293 2 0.618505 0.51229 0.909974
248 1 0.618679 0.761113 0.878106
108 1 0.822284 0.793697 0.0689769
272 1 0.894233 0.597963 0.750762
54 1 0.729162 0.585559 0.891641
352 2 0.929078 0.529334 0.873422
274 1 0.832667 0.496862 0.966072
125 1 0.880159 0.647108 0.916653
209 1 0.777861 0.711727 0.828037
217 1 0.224899 0.852926 0.842622
204 1 0.150936 0.0102126 0.889871
232 1 0.0437729 0.872198 0.880426
151 1 0.196274 0.858634 0.994423
71 1 0.303664 0.986231 0.84085
127 1 0.369004 0.866606 0.922507
32 1 0.310856 0.0214301 -0.00375879
83 1 0.474905 0.81991 0.0493824
224 1 0.483116 0.905732 0.818411
330 2 0.493258 0.795554 0.866064
74 1 0.654702 0.888338 0.796737
279 1 0.564867 0.884078 0.94926
122 1 0.722741 0.863451 0.937838
349 2 0.709527 0.990021 0.884733
75 1 0.946292 0.754541 0.8045
212 1 0.877022 0.810383 0.922853
351 2 0.935707 0.898503 0.820982
148 1 0.829196 0.977683 0.927557
210 1 0.807211 0.871574 0.800164
ITEM: TIMESTEP
140000
ITEM: NUMBER OF ATOMS
360
ITEM: BOX BOUNDS pp pp pp
0.0000000000000000e+00 6.6943295008216896e+00
0.0000000000000000e+00 6.6943295008216896e+00
0.0000000000000000e+00 6.6943295008216896e+00
ITEM: ATOMS id type xs ys zs
17 1 0.187957 0.102085 0.197656
129 1 0.174158 0.240935 0.114113
204 1 0.0932398 0.0851903 0.0836984
350 2 0.191233 0.0127893 0.0786635
288 1 0.0373261 0.144368 0.209617
317 2 0.0948032 0.026732 0.254905
88 1 0.459112 0.248572 0.155902
115 1 0.314111 0.184626 0.172919
92 1 0.308546 0.0054981 0.177667
176 1 0.433762 0.0741082 0.248716
229 1 0.51415 0.1784 0.00145912
259 1 0.544847 0.130905 0.164519
170 1 0.724963 0.202021 0.135041
246 1 0.670501 0.0452614 0.153695
307 2 0.650422 0.134941 0.0552806
322 2 0.579268 0.264828 0.225983
165 1 0.945957 0.116675 0.0379124
139 1 0.990443 0.998671 0.171128
203 1 0.823152 0.0114205 0.138886
346 2 0.702732 0.978889 0.0304946
212 1 0.768656 0.108631 0.0192032
50 1 0.883247 0.162139 0.170487
104 1 0.0742675 0.302092 0.235832
93 1 0.105163 0.380761 0.100313
188 1 0.999349 0.255408 0.103679
182 1 0.0877064 0.464314 0.240561
40 1 0.224577 0.389137 0.189191
255 1 0.316623 0.310364 0.0754153
174 1 0.374091 0.454681 0.143234
13 1 0.248972 0.458129 0.0493539
48 1 0.212519 0.247382 0.26723
156 1 0.464454 0.343461 0.0352058
112 1 0.597912 0.278168 0.0922749
58 1 0.530259 0.387069 0.19646
24 1 0.682148 0.34255 0.187636
146 1 0.596642 0.436693 0.0713516
113 1 0.723084 0.361279 0.0312163
15 1 0.725484 0.482208 0.162966
358 2 0.508673 0.514127 0.154729
298 2 0.700065 0.522683 0.0403471
46 1 0.847671 0.314817 0.109646
342 2 0.919785 0.292029 0.211145
240 1 0.970912 0.410747 0.16247
4 1 0.842207 0.405725 0.237896
142 1 0.855576 0.470268 0.0612834
271 1 0.996385 0.435192 0.999126
22 1 0.113931 0.547374 0.0806425
60 1 0.142716 0.663812 0.193389
245 1 0.0079021 0.596893 0.199398
68 1 0.0698354 0.699649 0.0592153
87 1 0.0199204 0.74308 0.255683
283 1 0.25673 0.543646 0.18444
296 2 0.227065 0.636571 0.0922724
157 1 0.409261 0.606834 0.189067
205 1 0.465081 0.547331 0.99995
211 1 0.480663 0.703228 0.0939377
137 1 0.317908 0.746287 0.149566
238 1 0.54716 0.605795 0.250115
191 1 0.602943 0.59042 0.103826
256 1 0.629701 0.718091 0.182807
123 1 0.653182 0.738029 0.0342206
108 1 0.756004 0.628726 0.0868932
166 1 0.958611 0.587468 0.0584235
150 1 0.913277 0.722626 0.113651
77 1 0.852529 0.569746 0.179229
126 1 0.796276 0.706156 0.217229
313 2 0.160896 0.772501 0.126461
100 1 0.132723 0.945588 0.168623
107 1 0.133211 0.856727 0.0107451
30 1 0.0220453 0.839411 0.126098
327 2 0.935748 0.915375 0.0791883
61 1 0.151374 0.822684 0.258424
252 1 0.259177 0.878544 0.0972293
83 1 0.411375 0.853166 0.133756
338 2 0.544985 0.839945 0.159899
106 1 0.41209 0.100171 0.0867374
86 1 0.453683 0.75365 0.255688
38 1 0.304351 0.870377 0.255323
57 1 0.522018 0.986387 0.140963
347 2 0.73772 0.792847 0.134349
49 1 0.738978 0.91111 0.217406
228 1 0.54624 0.831558 0.0014196
118 1 0.645092 0.884503 0.0940852
297 2 0.00342197 0.716542 0.947913
189 1 0.880244 0.855305 0.199588
52 1 0.786072 0.848444 0.0276441
44 1 0.847748 0.988792 0.985948
197 1 0.120965 0.158404 0.349661
320 2 0.0716175 0.0428402 0.40609
208 1 0.180365 0.0486777 0.466953
10 1 0.231731 0.228976 0.430124
280 1 0.0053628 0.13732 0.459011
308 2 0.363511 0.204801 0.286328
76 1 0.280407 0.109287 0.323127
20 1 0.480607 0.0967023 0.382641
300 2 0.451819 0.144811 0.499936
216 1 0.387581 0.226432 0.407611
14 1 0.329485 0.0988171 0.485923
260 1 0.485215 0.233157 0.30188
239 1 0.647077 0.156888 0.268762
353 2 0.782577 0.0129459 0.389831
19 1 0.646113 0.0846944 0.41639
47 1 0.550058 0.216081 0.436376
264 1 0.767593 0.0741439 0.287886
333 2 0.875941 0.13906 0.287906
179 1 0.967495 0.234396 0.330557
183 1 0.9729 0.0541225 0.317293
133 1 0.862265 0.112386 0.42241
195 1 0.738514 0.20794 0.402969
185 1 0.169744 0.375556 0.341993
275 1 0.0904342 0.285865 0.443089
35 1 0.00458258 0.379143 0.352711
312 2 0.188395 0.504865 0.403514
117 1 0.157609 0.415065 0.493111
226 1 0.450382 0.483933 0.285271
31 1 0.371494 0.337704 0.256489
326 2 0.291938 0.317266 0.348518
116 1 0.298168 0.453898 0.351146
206 1 0.336366 0.359262 0.471239
121 1 0.490567 0.379074 0.398969
249 1 0.637952 0.447506 0.288844
267 1 0.632375 0.299824 0.347849
200 1 0.641321 0.416001 0.465955
198 1 0.802613 0.257834 0.274599
285 1 0.98224 0.407607 0.494931
243 1 0.761321 0.375376 0.367996
152 1 0.863279 0.283035 0.432473
328 2 0.881114 0.395798 0.360835
263 1 0.06597 0.509702 0.403863
321 2 0.0667817 0.581713 0.300973
284 1 0.184321 0.608266 0.338178
253 1 0.262615 0.564363 0.469684
21 1 0.117293 0.625027 0.481265
258 1 0.409666 0.515039 0.454296
227 1 0.268607 0.734032 0.301561
164 1 0.360096 0.598527 0.340332
138 1 0.239375 0.713651 0.453543
306 2 0.365678 0.705104 0.470296
134 1 0.706841 0.600184 0.257604
140 1 0.481234 0.681314 0.397225
314 2 0.621558 0.614728 0.352179
196 1 0.550439 0.522057 0.397389
331 2 0.631605 0.539839 0.494872
102 1 0.716044 0.533863 0.392741
105 1 0.656962 0.664659 0.466466
233 1 0.667886 0.730151 0.329566
119 1 0.862633 0.501447 0.435264
309 2 0.81834 0.515194 0.308535
236 1 0.943729 0.495838 0.299271
344 2 0.968972 0.542295 0.478524
315 2 0.914917 0.645754 0.26914
201 1 0.976117 0.656245 0.386725
155 1 0.816 0.640813 0.371155
345 2 0.882763 0.727869 0.446328
277 1 0.198557 0.979001 0.309652
132 1 0.111589 0.76329 0.390039
120 1 0.0970773 0.913474 0.403578
36 1 1.00094 0.891862 0.279507
242 1 0.255879 0.865886 0.396277
56 1 0.356442 0.975727 0.373048
70 1 0.413855 0.816945 0.384324
262 1 0.459772 0.91398 0.269582
194 1 0.597137 0.00980843 0.278726
136 1 0.529882 0.944848 0.404402
94 1 0.597424 0.851236 0.286235
67 1 0.611275 0.820901 0.459702
168 1 0.711027 0.906324 0.367577
230 1 0.966205 0.983419 0.447144
33 1 0.863266 0.944337 0.327485
131 1 0.876252 0.777478 0.333705
301 2 0.765815 0.80906 0.287776
53 1 0.967043 0.826005 0.437599
63 1 0.842758 0.908344 0.470591
90 1 0.773927 0.775788 0.434735