ITEM: TIMESTEP
0
ITEM: NUMBER OF ATOMS
360
ITEM: BOX BOUNDS pp pp pp
0.0000000000000000e+00 6.6943295008216896e+00
0.0000000000000000e+00 6.6943295008216896e+00
0.0000000000000000e+00 6.6943295008216896e+00
ITEM: ATOMS id type xs ys zs
243 1 0.169493 0.102444 0.0819417
104 1 0.0179098 0.140293 0.101208
122 1 0.0963581 0.244643 0.00144998
222 1 0.0841114 0.0247976 0.196085
345 2 0.194191 0.102161 0.229814
356 2 0.418481 0.111519 0.155659
263 1 0.479924 0.116309 0.0300128
136 1 0.475535 0.0065243 0.202385
230 1 0.327936 0.124223 0.0579172
165 1 0.293761 0.195803 0.197251
228 1 0.301119 0.030551 0.174834
234 1 0.524951 0.169224 0.182564
38 1 0.633624 0.116138 0.0233939
254 1 0.656163 0.0614851 0.196894
343 2 0.662071 0.185915 0.204586
348 2 0.732853 0.0411304 0.0886836
295 2 0.902472 0.178495 0.052963
66 1 0.750314 0.174069 0.109656
71 1 0.917444 0.219583 0.194689
56 1 0.879808 0.0797592 0.129968
334 2 0.987885 0.0162529 0.0318596
54 1 0.111111 0.26545 0.157624
147 1 0.169893 0.380122 0.0575885
43 1 0.0902277 0.429118 0.196873
331 2 0.0541923 0.363882 0.0146547
267 1 0.411135 0.255639 0.101181
180 1 0.255582 0.335843 0.180033
146 1 0.261092 0.271692 0.0265057
313 2 0.377747 0.359641 0.185381
33 1 0.329176 0.41567 0.0771207
285 1 0.34622 0.48703 0.221675
109 1 0.42021 0.263079 0.247816
97 1 0.503533 0.402954 0.144716
94 1 0.722074 0.323403 0.0824502
150 1 0.583972 0.265802 0.0869515
28 1 0.669102 0.435191 0.160667
212 1 0.601561 0.318413 0.239831
91 1 0.579242 0.484015 0.0156741
231 1 0.97508 0.462897 0.0777113
128 1 0.968854 0.287869 0.0669633
149 1 0.764128 0.289698 0.218121
318 2 0.843391 0.296078 0.122212
61 1 0.931533 0.391392 0.1933
69 1 0.855201 0.39107 0.0414339
134 1 0.806563 0.49768 0.133265
306 2 0.186422 0.530237 0.0221211
52 1 0.0849469 0.571915 0.112398
275 1 0.209603 0.689273 0.110111
226 1 0.0784049 0.711781 0.192126
114 1 0.221467 0.504971 0.142653
309 2 0.029438 0.586338 0.00257161
355 2 0.168426 0.606944 0.200127
89 1 0.458122 0.538023 0.0958065
154 1 0.295736 0.587145 0.0388349
166 1 0.358485 0.651201 0.166514
115 1 0.425843 0.679212 0.0284647
319 2 0.462094 0.732268 0.160158
337 2 0.55495 0.507245 0.194917
253 1 0.55684 0.639748 0.141096
44 1 0.677641 0.576472 0.0952629
317 2 0.532194 0.598487 0.0168809
99 1 0.696736 0.610655 0.246226
161 1 0.937399 0.567903 0.183869
283 1 0.814077 0.656136 0.132453
59 1 0.967886 0.685991 0.0720108
296 2 0.923099 0.698399 0.197128
142 1 0.885165 0.55683 0.007823
297 2 0.819646 0.568495 0.240983
298 2 0.775977 0.643228 0.0181237
338 2 0.185456 0.972031 0.143806
282 1 0.101779 0.781721 0.0556133
139 1 0.096349 0.862005 0.215243
119 1 0.0979727 0.936582 0.0331753
95 1 0.232842 0.868513 0.074934
37 1 0.247186 0.777912 0.235822
199 1 0.367079 0.805491 0.104798
176 1 0.387632 0.954595 0.0778721
6 1 0.454579 0.851942 0.218277
344 2 0.343662 0.90069 0.190519
11 1 0.705117 0.760581 0.0224605
35 1 0.697227 0.752165 0.191614
167 1 0.573689 0.989046 0.0899946
236 1 0.576208 0.79627 0.117752
14 1 0.708562 0.908981 0.118128
360 2 0.626146 0.871674 0.0191812
357 2 0.989232 0.797846 0.134487
164 1 0.968 0.93529 0.152754
193 1 0.840158 0.960823 0.0481939
269 1 0.837496 0.811946 0.107844
205 1 0.806693 0.97733 0.217141
156 1 0.924811 0.8273 0.247004
15 1 0.951669 0.842269 0.0177897
206 1 0.0919327 0.161101 0.277815
178 1 0.160136 0.158773 0.429045
238 1 0.104068 0.030815 0.346025
273 1 0.00476769 0.102154 0.455705
116 1 0.262689 0.0687542 0.328462
100 1 0.412096 0.111904 0.292108
290 2 0.269042 0.0709228 0.459519
47 1 0.305402 0.213073 0.361022
195 1 0.471563 0.00596343 0.412811
279 1 0.378864 0.129584 0.472999
42 1 0.654129 0.216818 0.330739
131 1 0.542682 0.160792 0.448537
152 1 0.573111 0.0965369 0.312591
342 2 0.515918 0.221924 0.310487
208 1 0.728205 0.113112 0.42227
358 2 0.602363 0.0254077 0.415658
280 1 0.955989 0.0630989 0.265161
183 1 0.780594 0.142932 0.26269
125 1 0.938414 0.194575 0.348006
215 1 0.846561 0.0266528 0.385543
213 1 0.871474 0.166667 0.494149
90 1 0.238445 0.285916 0.468606
76 1 0.0711421 0.293238 0.417433
57 1 0.172563 0.286198 0.303306
288 1 0.219409 0.465046 0.304001
305 2 0.172122 0.381516 0.393724
240 1 0.0629941 0.442207 0.36057
45 1 0.0191001 0.310264 0.282743
113 1 0.279415 0.443686 0.479194
5 1 0.437969 0.273652 0.402408
121 1 0.330381 0.366577 0.325678
140 1 0.491455 0.416403 0.300228
88 1 0.43167 0.422233 0.453911
107 1 0.626704 0.466491 0.299096
291 2 0.697992 0.33656 0.316828
48 1 0.589743 0.330868 0.392515
112 1 0.736373 0.405133 0.417867
151 1 0.593532 0.479301 0.461232
1 1 0.668635 0.251512 0.494163
218 1 0.814309 0.431413 0.278105
346 2 0.992168 0.473217 0.260345
286 1 0.800755 0.263916 0.381255
316 2 0.923215 0.284629 0.45522
322 2 0.886807 0.30076 0.281153
96 1 0.914936 0.382368 0.378315
117 1 0.850559 0.490576 0.475334
144 1 0.0728637 0.56796 0.274806
219 1 0.152865 0.552983 0.423581
217 1 0.148984 0.711557 0.351759
252 1 0.459698 0.58347 0.270458
108 1 0.254694 0.616843 0.289034
79 1 0.28647 0.670181 0.435529
32 1 0.349855 0.5338 0.371917
67 1 0.450839 0.654761 0.411535
349 2 0.482168 0.521993 0.373032
123 1 0.377217 0.719707 0.292465
259 1 0.595997 0.603775 0.371177
277 1 0.670119 0.740804 0.346991
256 1 0.53235 0.719341 0.281858
132 1 0.559971 0.746002 0.459657
58 1 0.690833 0.647377 0.479793
249 1 0.763677 0.564556 0.365185
198 1 0.970777 0.680114 0.313739
92 1 0.987062 0.547051 0.47767
245 1 0.822567 0.706048 0.288085
17 1 0.919544 0.541752 0.338417
62 1 0.855437 0.668956 0.435683
347 2 0.983334 0.66649 0.450945
53 1 0.228021 0.926322 0.261122
50 1 0.233091 0.954583 0.420807
302 2 0.0352446 0.808277 0.30481
130 1 0.119788 0.86964 0.373291
157 1 0.0316359 0.958104 0.491716
325 2 0.377613 0.761588 0.422489
278 1 0.272137 0.813239 0.377943
29 1 0.371808 0.956218 0.319351
77 1 0.467663 0.830702 0.37309
320 2 0.384988 0.912364 0.432104
4 1 0.612033 0.885848 0.251804
359 2 0.510964 0.9472 0.307616
268 1 0.611322 0.897108 0.42296
260 1 0.694088 0.99708 0.322747
163 1 0.73808 0.79217 0.481655
196 1 0.730503 0.974364 0.476285
272 1 0.99818 0.79019 0.433483
85 1 0.979058 0.930028 0.345392
40 1 0.771174 0.861002 0.312173
227 1 0.871656 0.884189 0.451819
352 2 0.88036 0.792112 0.364775
102 1 0.163025 0.0298292 0.521327
118 1 0.120327 0.14216 0.691408
80 1 0.235582 0.0153726 0.675259
294 2 0.0804998 0.123592 0.562573
98 1 0.241924 0.152371 0.55652
310 2 0.467706 0.0682599 0.556068
281 1 0.373836 0.0935467 0.643685
229 1 0.47293 0.197651 0.61156
181 1 0.269679 0.241708 0.672816
303 2 0.363691 0.000356563 0.734709
341 2 0.591006 0.169289 0.570935
216 1 0.569631 0.107394 0.67778
221 1 0.710278 0.113434 0.57294
49 1 0.70196 0.176659 0.73114
160 1 0.594322 0.0243359 0.544836
335 2 0.738965 0.228663 0.590029
78 1 0.985754 0.215753 0.732666
106 1 0.991953 0.227354 0.555616
10 1 0.970589 0.0842934 0.630393
158 1 0.846736 0.180669 0.649429
274 1 0.857758 0.0188083 0.545797
141 1 0.830601 0.021371 0.698147
211 1 0.119079 0.420929 0.513202
30 1 0.134916 0.268723 0.576164
26 1 0.146207 0.313308 0.731696
264 1 0.233309 0.384343 0.620699
266 1 0.10604 0.474 0.671076
168 1 0.0117206 0.352169 0.665326
2 1 0.363341 0.27918 0.54073
63 1 0.391079 0.360769 0.661163
336 2 0.272672 0.347566 0.746757
351 2 0.437969 0.465262 0.729479
148 1 0.336554 0.495673 0.678967
9 1 0.512383 0.461326 0.590754
93 1 0.512971 0.362547 0.740588
169 1 0.522245 0.318472 0.539648
105 1 0.620201 0.274208 0.652404
239 1 0.679136 0.405298 0.566074
214 1 0.63934 0.449818 0.713595
22 1 0.953662 0.378983 0.527619
133 1 0.764188 0.319585 0.677612
315 2 0.901321 0.29538 0.627703
255 1 0.812601 0.314736 0.532355
293 2 0.908321 0.411177 0.72139
8 1 0.802718 0.476098 0.622533
188 1 0.958907 0.495173 0.6278
271 1 0.107141 0.685454 0.501494
182 1 0.219257 0.559888 0.585252
339 2 0.0855182 0.554943 0.573164
36 1 0.132 0.651994 0.655214
301 2 0.0324366 0.580247 0.710928
350 2 0.231853 0.744808 0.716724
34 1 0.252022 0.725578 0.573405
129 1 0.25072 0.619265 0.734487
237 1 0.375998 0.552916 0.517859
354 2 0.323439 0.624567 0.63432
31 1 0.404428 0.692443 0.546733
210 1 0.37016 0.736048 0.696484
244 1 0.444501 0.597231 0.661925
299 2 0.731846 0.506538 0.507043
173 1 0.52969 0.601682 0.528732
24 1 0.66816 0.555938 0.605891
224 1 0.570303 0.705291 0.631425
189 1 0.731814 0.71407 0.622306
39 1 0.573258 0.576064 0.742576
74 1 0.991543 0.65428 0.593746
82 1 0.841307 0.612018 0.572821
192 1 0.904196 0.599756 0.728717
250 1 0.75043 0.608435 0.735536
83 1 0.159014 0.853573 0.517696
284 1 0.0777641 0.973802 0.644885
248 1 0.059789 0.792084 0.629041
101 1 0.198644 0.860941 0.671476
314 2 0.247989 0.93234 0.573444
287 1 0.34356 0.988188 0.521267
190 1 0.490116 0.976114 0.649174
16 1 0.483729 0.885631 0.518513
207 1 0.331113 0.838382 0.52114
73 1 0.362785 0.888181 0.671996
304 2 0.447804 0.802429 0.609282
257 1 0.679388 0.979143 0.660495
270 1 0.503624 0.805031 0.737199
201 1 0.626911 0.840287 0.58293
225 1 0.666999 0.812018 0.733792
174 1 0.788365 0.872572 0.617533
72 1 0.881294 0.763567 0.710582
202 1 0.951144 0.897814 0.597657
7 1 0.889155 0.759614 0.550985
292 2 0.234769 0.206205 0.792685
3 1 0.10026 0.203448 0.839575
209 1 0.085736 0.0854888 0.95815
353 2 0.184585 0.089072 0.819744
171 1 0.241759 0.14393 0.918159
127 1 0.456989 0.0788161 0.780795
86 1 0.301183 0.110589 0.771266
51 1 0.394371 0.0640984 0.920464
340 2 0.447737 0.173979 0.867599
135 1 0.541997 0.22388 0.943331
70 1 0.551177 0.0560915 0.906144
126 1 0.674004 0.176803 0.888957
332 2 0.623621 0.106385 0.796305
162 1 0.717762 0.0365927 0.827653
187 1 0.55079 0.218251 0.786047
311 2 0.680827 0.232536 0.997267
159 1 0.956261 0.242365 0.901074
55 1 0.783955 0.0938535 0.968361
247 1 0.996741 0.0847986 0.814265
65 1 0.940812 0.0947768 0.959931
145 1 0.846571 0.151801 0.814006
19 1 0.817168 0.244375 0.984969
323 2 0.762518 0.241499 0.8228
200 1 0.112301 0.345679 0.888846
330 2 0.0167955 0.333197 0.803112
220 1 0.219131 0.464273 0.78046
235 1 0.0882203 0.480507 0.965153
60 1 0.23603 0.444228 0.941266
321 2 0.339054 0.370963 0.958931
21 1 0.387822 0.255137 0.78143
153 1 0.255671 0.308627 0.86712
13 1 0.467505 0.36772 0.997611
194 1 0.386723 0.25047 0.942025
307 2 0.456177 0.33531 0.863501
111 1 0.358975 0.417943 0.815845
110 1 0.735178 0.489086 0.992003
262 1 0.650837 0.325767 0.803357
143 1 0.637615 0.35808 0.963805
203 1 0.520936 0.457939 0.872085
276 1 0.998475 0.463467 0.792227
191 1 0.880446 0.31055 0.786742
329 2 0.854401 0.484945 0.901134
27 1 0.953081 0.399363 0.922886
175 1 0.773928 0.372814 0.897732
170 1 0.804745 0.462632 0.779072
155 1 0.139514 0.63984 0.979571
87 1 0.119109 0.575872 0.818013
120 1 0.176844 0.73299 0.841238
68 1 0.0165272 0.718429 0.908728
25 1 0.246521 0.588059 0.88331
186 1 0.0236641 0.704738 0.755962
46 1 0.399403 0.50256 0.956639
312 2 0.324326 0.696732 0.824903
326 2 0.360743 0.623364 0.930561
261 1 0.380277 0.57464 0.798306
12 1 0.293598 0.735899 0.96569
333 2 0.4828 0.673214 0.750628
233 1 0.492705 0.602769 0.887971
177 1 0.44207 0.74575 0.867245
172 1 0.678112 0.500067 0.852213
179 1 0.663445 0.621027 0.947234
232 1 0.604552 0.71709 0.836324
75 1 0.563404 0.740344 0.978977
204 1 0.965513 0.580385 0.882084
242 1 0.773574 0.735998 0.828295
184 1 0.811576 0.598639 0.876766
324 2 0.901169 0.694311 0.845552
251 1 0.864738 0.719465 0.973685
23 1 0.114 0.993318 0.786394
327 2 0.176346 0.885934 0.804134
328 2 0.147353 0.977963 0.918417
289 2 0.0591252 0.845366 0.931272
103 1 0.0544839 0.838654 0.801917
258 1 0.181846 0.856849 0.928894
137 1 0.0218074 0.957593 0.909431
20 1 0.263238 0.995036 0.989718
308 2 0.44392 0.800458 0.993985
241 1 0.269991 0.977294 0.833078
41 1 0.424965 0.915529 0.821155
124 1 0.292063 0.821192 0.801648
197 1 0.352875 0.874039 0.94823
138 1 0.522789 0.908761 0.962583
246 1 0.683192 0.978633 0.968329
223 1 0.57763 0.961236 0.773402
300 2 0.540409 0.839736 0.852244
81 1 0.654975 0.847852 0.889189
64 1 0.960691 0.942138 0.756167
265 1 0.869753 0.995199 0.878342
185 1 0.789177 0.891672 0.784351
18 1 0.789796 0.858798 0.949542
84 1 0.916336 0.820015 0.855479
ITEM: TIMESTEP
300000
ITEM: NUMBER OF ATOMS
360
ITEM: BOX BOUNDS pp pp pp
0.0000000000000000e+00 6.6943295008216896e+00
0.0000000000000000e+00 6.6943295008216896e+00
0.0000000000000000e+00 6.6943295008216896e+00
ITEM: ATOMS id type xs ys zs
209 1 0.19345 0.072158 0.033436
206 1 0.185102 0.148619 0.178767
139 1 0.117228 -0.000180594 0.159014
71 1 0.0389873 0.196657 0.229748
104 1 0.053628 0.140617 0.0927707
267 1 0.216947 0.229655 0.0469649
136 1 0.27026 -0.000416934 0.152328
295 2 0.114862 0.253652 0.128357
243 1 0.33484 0.13773 0.112136
345 2 0.475837 0.183727 0.12321
360 2 0.301195 0.157925 0.9891
165 1 0.311171 0.226188 0.251023
234 1 0.52478 0.0866692 0.0263409
66 1 0.652683 0.159738 0.073149
152 1 0.55164 0.0911273 0.188988
32 1 0.593445 0.25293 0.181977
308 2 0.666023 0.141353 0.223061
359 2 0.766792 0.0933753 0.155621
19 1 0.797298 0.198345 0.223551
297 2 0.923163 0.198583 0.204637
164 1 0.964151 0.0681176 0.231623
56 1 0.891319 0.127191 0.0900659
145 1 0.774884 0.0495815 0.0349632
147 1 0.119684 0.377313 0.0687473
69 1 0.05312 0.340036 0.211066
306 2 0.198788 0.467222 0.123926
47 1 0.205144 0.331333 0.196809
54 1 0.0937009 0.495802 0.200757
20 1 0.382924 0.285867 0.133403
128 1 0.276592 0.362894 0.0485241
33 1 0.458363 0.425374 0.101493
356 2 0.397876 0.314642 0.00369173
291 2 0.340458 0.407698 0.156167
323 2 0.496986 0.334674 0.186326
180 1 0.443055 0.536268 0.219778
253 1 0.524056 0.288247 0.057948
28 1 0.623207 0.426863 0.0832556
259 1 0.59374 0.41001 0.225695
315 2 0.685718 0.327441 0.13476
286 1 0.752616 0.40091 0.219634
110 1 0.806037 0.433082 0.0806797
212 1 0.805341 0.268529 0.0853804
149 1 0.886993 0.322433 0.200036
322 2 0.868052 0.504322 0.187088
175 1 0.967992 0.272404 0.0939988
134 1 0.975181 0.440921 0.0994638
331 2 0.900705 0.369752 0.0157219
346 2 0.981096 0.451375 0.241006
155 1 0.0788954 0.553902 0.0639331
166 1 0.217918 0.596415 0.179453
15 1 0.135333 0.70714 0.0816498
326 2 0.204697 0.58094 0.0544519
275 1 0.216059 0.745149 0.21204
261 1 0.330071 0.520967 0.100573
12 1 0.297095 0.689416 0.0725374
154 1 0.378638 0.699291 0.219815
338 2 0.423396 0.609006 0.114127
115 1 0.503497 0.558484 0.0327358
176 1 0.450253 0.714922 0.026337
349 2 0.717311 0.503072 0.161297
333 2 0.545304 0.514462 0.142288
182 1 0.520719 0.662364 0.163998
256 1 0.647773 0.581575 0.0638002
35 1 0.70617 0.706257 0.170685
337 2 0.575593 0.689656 0.036145
302 2 0.624359 0.704356 0.274853
277 1 0.636663 0.561247 0.232741
59 1 0.953101 0.624805 0.0230655
283 1 0.816252 0.596093 0.0997486
161 1 0.961091 0.592869 0.187145
269 1 0.865391 0.757677 0.0550771
298 2 0.875398 0.689829 0.171416
245 1 0.783126 0.584743 0.253785
226 1 0.120224 0.854292 0.149694
84 1 0.005171 0.841662 0.0327739
357 2 0.193441 0.94526 0.0704524
119 1 0.101075 0.952806 0.978164
171 1 0.42521 0.994886 0.120335
228 1 0.284474 0.852029 0.112943
95 1 0.428236 0.820879 0.134653
319 2 0.297484 0.792443 0.297221
263 1 0.407987 0.890293 -0.00300008
55 1 0.674568 1.00023 0.13418
225 1 0.552248 0.923854 0.0319913
342 2 0.755873 0.931808 0.211337
254 1 0.542504 0.933426 0.196249
6 1 0.584895 0.795657 0.110945
14 1 0.663773 0.837261 0.247744
156 1 0.989582 1.00155 0.0645908
144 1 0.99544 0.750254 0.154609
167 1 0.747137 0.856552 0.109787
198 1 0.987484 0.917919 0.188169
334 2 0.910105 0.865842 0.108964
205 1 0.850335 0.980613 0.141343
40 1 0.860707 0.8149 0.227902
296 2 0.0996528 0.0801142 0.245596
222 1 0.175965 0.069497 0.446962
57 1 0.0413967 0.115509 0.37378
29 1 0.214292 0.0539903 0.29807
314 2 0.1023 0.197995 0.450316
98 1 0.171876 0.200212 0.316638
150 1 0.372632 0.0621434 0.247507
279 1 0.310865 0.139895 0.382133
5 1 0.457572 0.127516 0.396628
100 1 0.461024 0.205276 0.252956
42 1 0.588949 0.148311 0.322064
318 2 0.641163 0.211918 0.422058
1 1 0.759509 0.176003 0.373531
160 1 0.606149 0.0873149 0.458737
208 1 0.743413 0.025083 0.430589
48 1 0.534736 0.23302 0.492993
280 1 0.784188 0.0446262 0.272566
45 1 0.907851 0.18895 0.32826
343 2 0.843645 0.249348 0.447408
227 1 0.899937 0.035642 0.370159
125 1 0.872574 0.118755 0.493327
96 1 0.97795 0.252946 0.457165
90 1 0.117411 0.325778 0.440793
121 1 0.213898 0.509402 0.416315
288 1 0.122776 0.424363 0.325136
211 1 0.0638602 0.49348 0.466608
348 2 0.0489268 0.273857 0.351052
97 1 0.261282 0.472076 0.247184
240 1 0.252347 0.348242 0.365639
285 1 0.402524 0.379662 0.259457
109 1 0.385093 0.2819 0.388453
88 1 0.366778 0.442949 0.395562
354 2 0.468813 0.348965 0.467262
140 1 0.678658 0.285679 0.295577
99 1 0.699546 0.463654 0.342006
151 1 0.705566 0.324666 0.438762
173 1 0.542723 0.32662 0.36327
214 1 0.583277 0.410442 0.482181
63 1 0.511205 0.47253 0.354345
43 1 0.96904 0.370862 0.354829
61 1 0.827369 0.322888 0.345129
294 2 0.92376 0.481909 0.438968
44 1 0.868104 0.474032 0.306713
252 1 0.850571 0.381304 0.473197
52 1 0.0966492 0.661786 0.256932
219 1 0.0044249 0.538785 0.33568
355 2 0.166883 0.558427 0.30536
114 1 0.110859 0.623401 0.403839
148 1 0.276494 0.625743 0.314223
272 1 0.025572 0.754791 0.427468
113 1 0.260362 0.660875 0.458058
305 2 0.402168 0.57483 0.335031
132 1 0.406443 0.596288 0.457136
67 1 0.387459 0.725415 0.369847
320 2 0.508468 0.706555 0.436931
336 2 0.675987 0.51038 0.471968
58 1 0.528847 0.634313 0.320691
249 1 0.686333 0.614058 0.375868
299 2 0.701099 0.699457 0.466048
62 1 0.754314 0.73724 0.327822
224 1 0.569463 0.586708 0.481421
107 1 0.808288 0.532078 0.442459
313 2 0.87497 0.604301 0.357415
17 1 0.927905 0.694389 0.301789
117 1 0.830653 0.679204 0.456403
218 1 0.966082 0.613061 0.469156
108 1 0.177459 0.747489 0.36041
217 1 0.0627362 0.815043 0.294129
238 1 0.0689929 0.9706 0.311524
157 1 0.131525 0.877876 0.424887
37 1 0.215856 0.893605 0.266045
325 2 0.223669 0.962106 0.388081
278 1 0.341201 0.987761 0.377528
199 1 0.369972 0.889633 0.26822
31 1 0.30248 0.83915 0.420914
77 1 0.472673 0.844259 0.409094
123 1 0.507901 0.782841 0.275047
53 1 0.490624 0.994008 0.321936
183 1 0.646712 0.0162758 0.288879
4 1 0.62142 0.777673 0.392562
268 1 0.61187 0.933129 0.428439
352 2 0.566178 0.877614 0.324747
201 1 0.77019 0.82846 0.456301
358 2 0.88939 0.947913 0.270684
260 1 0.783142 0.911171 0.335778
85 1 0.940285 0.883082 0.372308
163 1 0.859871 0.943307 0.492732
347 2 0.881037 0.778242 0.392151
202 1 0.914615 0.797306 0.521603
264 1 0.224977 0.210037 0.477326
10 1 0.203334 0.119682 0.630032
330 2 0.0821944 0.10166 0.659847
178 1 0.0244063 0.126143 0.539776
284 1 0.11183 -0.00889889 0.603978
102 1 0.248662 0.976067 0.68386
50 1 0.331289 0.0692438 0.527543
169 1 0.377114 0.209026 0.537134
216 1 0.358076 0.102719 0.679848
131 1 0.487594 0.113615 0.581938
332 2 0.513753 0.0262011 0.681904
290 2 0.536155 0.214729 0.640908
105 1 0.639155 0.124037 0.627547
335 2 0.649271 0.220865 0.712974
196 1 0.738476 0.01839 0.579495
215 1 0.726292 0.179244 0.522945
191 1 0.953973 0.152515 0.669981
316 2 0.832703 0.112843 0.627232
106 1 0.770861 0.225743 0.696711
174 1 0.934194 0.0039819 0.610849
116 1 0.0860078 0.271605 0.59158
266 1 0.17738 0.412535 0.582139
341 2 0.148202 0.349758 0.691511
271 1 0.0440121 0.49116 0.653809
168 1 0.995775 0.330354 0.706612
22 1 0.982392 0.395627 0.560831
2 1 0.396811 0.254199 0.738616
229 1 0.237573 0.275434 0.630501
111 1 0.31205 0.353024 0.517313
237 1 0.47524 0.319342 0.604289
181 1 0.345787 0.396391 0.656408
203 1 0.466659 0.471113 0.551865
91 1 0.506822 0.438872 0.710489
239 1 0.635827 0.278314 0.596901
133 1 0.71688 0.425424 0.561898
321 2 0.578615 0.387483 0.61169
172 1 0.683223 0.380392 0.716784
9 1 0.549711 0.295697 0.765141
76 1 0.868951 0.24494 0.579835
293 2 0.761546 0.307031 0.567156
255 1 0.877563 0.50248 0.574442
8 1 0.834228 0.376308 0.660658
276 1 0.214532 0.532371 0.678663
34 1 0.155209 0.568365 0.553694
36 1 0.0584444 0.692592 0.579989
248 1 0.18753 0.689408 0.692403
87 1 0.00825082 0.645295 0.709224
339 2 0.984933 0.569853 0.584129
220 1 0.310242 0.520031 0.544185
210 1 0.326332 0.650616 0.638422
244 1 0.476213 0.638651 0.593885
233 1 0.365853 0.533855 0.712012
197 1 0.428104 0.744551 0.713093
79 1 0.399445 0.746564 0.514431
39 1 0.604122 0.519948 0.609359
250 1 0.638374 0.653004 0.685709
270 1 0.498124 0.599442 0.751086
312 2 0.557627 0.742393 0.651379
112 1 0.725379 0.606033 0.546132
82 1 0.764013 0.748721 0.591007
188 1 0.895951 0.524513 0.717585
92 1 0.888308 0.647057 0.600479
192 1 0.744982 0.515705 0.677095
301 2 0.766245 0.648953 0.689486
328 2 0.0894339 0.769356 0.676422
130 1 0.193073 0.7675 0.546044
83 1 0.0685042 0.852304 0.56684
207 1 0.230277 0.925637 0.535643
23 1 0.170948 0.858918 0.691016
195 1 0.462837 0.984445 0.478105
327 2 0.351081 0.910563 0.511267
287 1 0.412819 0.967258 0.629562
101 1 0.326016 0.835023 0.637926
51 1 0.493905 0.839668 0.586235
310 2 0.396476 0.871443 0.731379
303 2 0.299613 0.754848 0.732858
73 1 0.596026 0.730798 0.53779
257 1 0.650747 0.991933 0.701464
189 1 0.582516 0.979336 0.574185
16 1 0.519289 0.896805 0.73126
304 2 0.690657 0.893332 0.526709
24 1 0.639447 0.851772 0.636684
273 1 0.016438 0.977255 0.466198
74 1 0.957877 0.78899 0.673341
7 1 0.822737 0.885923 0.627269
242 1 0.71441 0.779975 0.741776
118 1 0.126936 0.0612778 0.776748
353 2 0.160567 0.0369697 0.902181
153 1 0.1825 0.156648 0.902827
65 1 0.0467083 0.0898013 0.924257
247 1 0.988213 0.186825 0.829089
70 1 0.417422 0.189203 1.00382
281 1 0.257743 0.188764 0.768404
80 1 0.271968 0.03223 0.828396
38 1 0.35572 0.0465482 0.978266
86 1 0.385287 0.142345 0.862632
300 2 0.507929 0.0843521 0.880563
190 1 0.421174 -0.00326581 0.780439
93 1 0.528638 0.134455 0.761996
221 1 0.674064 0.116307 0.806399
246 1 0.642837 0.0376923 0.939751
158 1 0.5561 0.193097 0.906081
126 1 0.763518 0.176069 0.956424
311 2 0.607903 0.0116636 0.821461
274 1 0.818381 0.027134 0.721862
122 1 0.907214 0.247558 0.957319
265 1 0.895591 0.061166 0.947905
141 1 0.841786 0.143108 0.816785
64 1 0.953238 0.024688 0.783591
146 1 0.0748972 0.232501 0.968703
78 1 0.112291 0.257041 0.786709
292 2 0.0333024 0.33377 0.839838
60 1 0.174676 0.337526 0.915963
26 1 0.114907 0.43005 0.790087
231 1 0.0540687 0.515092 0.918164
307 2 0.430674 0.254828 0.870068
3 1 0.253162 0.348145 0.772298
21 1 0.390867 0.446526 0.963928
230 1 0.31064 0.264666 0.919177
317 2 0.29604 0.387578 0.894659
187 1 0.393192 0.41343 0.815401
135 1 0.50252 0.353229 0.923775
143 1 0.656068 0.288815 0.991306
13 1 0.637015 0.394371 0.869142
213 1 0.706053 0.26488 0.830345
350 2 0.609743 0.500941 0.966061
170 1 0.631136 0.515522 0.781361
200 1 0.0125826 0.364866 0.960853
30 1 0.866645 0.296257 0.798675
159 1 0.779528 0.444852 0.824342
94 1 0.798131 0.342869 0.952312
27 1 0.953147 0.435568 0.824643
262 1 0.895284 0.482093 0.960304
309 2 0.0275515 0.535255 0.786274
89 1 0.205215 0.473636 0.982558
235 1 0.137834 0.596372 0.815473
258 1 0.205638 0.658738 0.946474
68 1 0.0577538 0.68462 0.916875
103 1 0.0306915 0.784517 0.799848
194 1 0.267652 0.497377 0.832178
129 1 0.314709 0.659076 0.806221
46 1 0.348197 0.594822 0.968529
329 2 0.397283 0.557831 0.850565
75 1 0.444257 0.675686 0.880025
236 1 0.697811 0.721348 0.020881
25 1 0.505351 0.509892 0.879225
232 1 0.553947 0.742449 0.793743
11 1 0.733071 0.499606 0.969268
179 1 0.589036 0.631359 0.911987
344 2 0.654238 0.746546 0.882531
184 1 0.721341 0.641856 0.818495
186 1 0.849255 0.704297 0.757669
351 2 0.834908 0.569901 0.833023
142 1 0.823233 0.643495 0.948676
204 1 0.944181 0.618023 0.853822
282 1 0.175209 0.819812 0.989243
72 1 0.028014 0.918782 0.698008
289 2 0.0787472 0.828913 0.909092
241 1 0.14119 0.910078 0.83062
124 1 0.175113 0.763827 0.832708
137 1 0.98338 0.91811 0.898861
127 1 0.251414 0.94545 0.942761
120 1 0.319363 0.767853 0.920759
340 2 0.361267 0.953148 0.883521
41 1 0.287245 0.869099 0.794231
138 1 0.428218 0.835002 0.850688
49 1 0.504312 0.965004 0.896626
223 1 0.549463 0.788302 0.945164
185 1 0.640167 0.882699 0.834371
177 1 0.687011 0.888026 0.981
193 1 0.859139 0.90867 0.997937
324 2 0.741708 0.899326 0.739066
162 1 0.773397 0.991216 0.869268
251 1 0.930402 0.774508 0.914043
81 1 0.779587 0.801006 0.885283
18 1 0.869643 0.882789 0.789477
ITEM: TIMESTEP
600000
ITEM: NUMBER OF ATOMS
360
ITEM: BOX BOUNDS pp pp pp
0.0000000000000000e+00 6.6943295008216896e+00
0.0000000000000000e+00 6.6943295008216896e+00
0.0000000000000000e+00 6.6943295008216896e+00
ITEM: ATOMS id type xs ys zs
165 1 0.226757 0.123365 0.181357
212 1 0.0544079 0.19822 0.179124
118 1 0.153952 0.0480684 0.0610697
360 2 0.191678 0.176075 0.0492914
164 1 0.00228373 0.0817505 0.0854325
20 1 0.366031 0.0406179 0.145337
100 1 0.289684 0.248782 0.111922
308 2 0.432042 0.0811782 0.0321039
158 1 0.439847 0.201843 0.0745409
60 1 0.52628 0.207461 0.234417
143 1 0.373272 0.166277 0.21153
108 1 0.484192 0.0133489 0.248578
234 1 0.739941 0.175131 0.0177528
140 1 0.65545 0.159964 0.144903
205 1 0.670652 0.016691 0.0567665
359 2 0.755014 0.0106576 0.150034
167 1 0.525158 0.0866709 0.115644
198 1 0.917555 0.227341 0.0887941
18 1 0.845209 0.0950897 0.0891528
19 1 0.973185 0.0949074 0.246227
14 1 0.812957 0.106351 0.247292
206 1 0.145166 0.286364 0.0836397
297 2 0.0932814 0.427814 0.101734
69 1 0.131734 0.387838 0.220763
175 1 0.00526034 0.336954 0.0180688
134 1 0.271842 0.403408 0.163863
71 1 0.188783 0.249684 0.274654
261 1 0.54503 0.458491 0.252934
267 1 0.42336 0.323243 0.173146
333 2 0.476903 0.425607 0.122127
182 1 0.369596 0.512261 0.104302
295 2 0.330427 0.268051 0.282481
280 1 0.576659 0.293565 0.116264
115 1 0.506691 0.312414 0.98536
246 1 0.701634 0.315206 0.0358612
11 1 0.644916 0.43885 0.0934286
345 2 0.744858 0.384183 0.148925
323 2 0.545637 0.331032 0.232866
149 1 0.953254 0.477745 0.0645651
42 1 0.779742 0.26099 0.15946
66 1 0.846818 0.371357 0.0733962
61 1 0.984009 0.361519 0.17271
355 2 0.920584 0.47146 0.189983
96 1 0.825724 0.381064 0.251599
95 1 0.248249 0.533422 0.269119
59 1 0.162088 0.542407 0.0710312
161 1 0.100082 0.690017 0.169305
44 1 0.0419574 0.51701 0.182828
204 1 0.0212975 0.619595 0.0373556
46 1 0.177879 0.708525 0.0311462
328 2 0.204254 0.750362 0.22751
228 1 0.244417 0.644059 0.157487
338 2 0.360808 0.584018 0.210443
123 1 0.386331 0.661862 0.096422
289 2 0.287085 0.584953 0.0596544
277 1 0.494548 0.741931 0.168976
154 1 0.513222 0.545413 0.130036
141 1 0.624978 0.685312 0.111028
1 1 0.655785 0.557043 0.190079
28 1 0.611991 0.559192 0.0174811
322 2 0.86689 0.551646 0.0173237
62 1 0.758086 0.687399 0.181331
245 1 0.806344 0.511708 0.13423
256 1 0.922381 0.625028 0.154623
110 1 0.767751 0.628283 0.0350425
334 2 0.87307 0.744606 0.0899942
156 1 0.99323 0.794075 0.131033
238 1 0.0811424 0.00758939 0.204649
12 1 0.127011 0.853113 0.176891
119 1 0.0305066 0.93887 0.0340413
209 1 0.235863 0.961855 0.17729
137 1 0.157256 0.858902 0.013637
84 1 0.31723 0.948726 0.0284591
120 1 0.476225 0.954167 0.0473544
136 1 0.384842 0.896037 0.170189
171 1 0.262013 0.804648 0.11614
254 1 0.429008 0.805903 0.0387545
305 2 0.501148 0.868799 0.135801
319 2 0.572585 0.974123 0.147299
349 2 0.639762 0.788859 0.174734
6 1 0.594329 0.827016 0.0469024
58 1 0.696259 0.898359 0.158754
150 1 0.557711 0.861309 0.245045
176 1 0.745328 0.789881 0.0494116
314 2 0.808297 0.912845 0.0740691
35 1 0.840359 0.828218 0.180294
104 1 0.904768 0.966056 0.141507
177 1 0.895626 0.844243 0.0139933
57 1 0.797949 0.961616 0.263896
296 2 0.220335 0.0433805 0.287613
29 1 0.10135 0.133935 0.329845
98 1 0.130977 0.250686 0.429582
248 1 0.179499 0.0496079 0.431193
40 1 0.0377597 -0.00104985 0.360741
279 1 0.274381 0.146416 0.343021
240 1 0.419998 0.15983 0.356936
50 1 0.340415 0.0536107 0.452015
332 2 0.448628 0.0174817 0.38187
278 1 0.341412 1.00101 0.305559
266 1 0.509542 0.0642397 0.494141
293 2 0.500808 0.206809 0.455776
53 1 0.572963 0.115598 0.360266
160 1 0.731326 0.0526507 0.369959
48 1 0.69537 0.179489 0.298007
214 1 0.656026 0.161796 0.479931
318 2 0.775124 0.120653 0.503752
208 1 0.911774 0.238367 0.247673
222 1 0.970189 0.167888 0.412511
215 1 0.807397 0.170312 0.391254
125 1 0.885825 0.0362296 0.369726
354 2 0.96586 0.998682 0.490262
330 2 0.871489 0.216603 0.490641
288 1 0.0448396 0.372575 0.443603
346 2 0.142796 0.362402 0.343392
90 1 0.200264 0.39368 0.467932
45 1 0.040713 0.287608 0.312185
144 1 0.112038 0.499576 0.339323
97 1 0.259708 0.371216 0.319721
180 1 0.383381 0.460783 0.255842
32 1 0.438771 0.329813 0.330673
47 1 0.311203 0.26716 0.420227
88 1 0.359739 0.439293 0.411925
326 2 0.466934 0.507725 0.344385
109 1 0.455446 0.324646 0.492253
5 1 0.57979 0.271449 0.370105
239 1 0.665705 0.345374 0.243409
253 1 0.550239 0.414164 0.394666
133 1 0.614159 0.31281 0.5078
252 1 0.737556 0.32004 0.396671
336 2 0.798717 0.264616 0.295497
264 1 0.908027 0.318988 0.393279
226 1 0.973379 0.427312 0.311642
43 1 0.842583 0.459879 0.404735
313 2 0.997884 0.720651 0.23858
291 2 0.129 0.620422 0.274909
34 1 0.0961376 0.640475 0.440402
166 1 0.232576 0.680396 0.333771
52 1 0.229654 0.552414 0.429123
199 1 0.359942 0.725654 0.241107
285 1 0.48 0.619891 0.255478
132 1 0.366304 0.588433 0.353026
272 1 0.247525 0.728073 0.47918
249 1 0.450781 0.53438 0.470561
173 1 0.6918 0.478358 0.327584
298 2 0.476366 0.751727 0.291144
4 1 0.596821 0.705387 0.276408
94 1 0.498125 0.665409 0.411815
343 2 0.59026 0.576318 0.301381
259 1 0.722709 0.630696 0.321722
224 1 0.622311 0.569381 0.426657
352 2 0.59825 0.701302 0.488662
219 1 -0.00463799 0.604558 0.307558
276 1 0.979996 0.520342 0.447956
151 1 0.852113 0.550602 0.278701
269 1 0.870504 0.722291 0.290123
286 1 0.862214 0.631069 0.416807
315 2 0.742737 0.534708 0.434942
325 2 0.202144 0.808056 0.380783
275 1 0.0957443 0.763769 0.302511
217 1 0.163999 0.925476 0.337016
113 1 0.112296 0.804834 0.471287
316 2 0.0483505 0.87668 0.399543
101 1 0.280497 0.894227 0.430213
195 1 0.372375 0.747968 0.399981
37 1 0.266023 0.844682 0.277616
152 1 0.415789 0.860963 0.314173
312 2 0.341954 0.814223 0.514259
268 1 0.726122 0.795382 0.277502
299 2 0.68795 0.746481 0.393591
107 1 0.540569 0.805439 0.399327
169 1 0.579563 0.967775 0.39197
183 1 0.651028 0.0337677 0.24119
131 1 0.702238 0.878687 0.42341
83 1 0.98238 0.735778 0.414579
139 1 0.976248 0.869586 0.265043