ITEM: TIMESTEP
0
ITEM: NUMBER OF ATOMS
360
ITEM: BOX BOUNDS pp pp pp
0.0000000000000000e+00 6.6943295008216896e+00
0.0000000000000000e+00 6.6943295008216896e+00
0.0000000000000000e+00 6.6943295008216896e+00
ITEM: ATOMS id type xs ys zs
243 1 0.0770906 0.148486 0.173706
93 1 0.0886123 0.0338045 0.060262
151 1 0.200665 0.122468 0.0818783
331 2 0.19457 0.0817658 0.208871
52 1 0.0904172 0.222176 0.0417196
27 1 0.361358 0.0410512 0.157255
293 2 0.426817 0.143507 0.098177
239 1 0.330029 0.213261 0.0539592
127 1 0.288111 0.169556 0.207675
146 1 0.431789 0.018018 0.0102409
63 1 0.452589 0.173796 0.239769
237 1 0.586695 0.0887938 0.0133931
121 1 0.65583 0.0550244 0.208486
300 2 0.673772 0.174582 0.155007
40 1 0.551371 0.186503 0.128779
91 1 0.516161 0.0171449 0.135332
24 1 0.693091 0.19469 0.0320609
2 1 0.71851 0.0298478 0.0518532
255 1 0.968826 0.109217 0.0860831
139 1 0.813465 0.0846596 0.157113
88 1 0.930071 0.184175 0.227654
8 1 0.834707 0.237275 0.107627
115 1 0.961648 0.0265873 0.220226
314 2 0.222732 0.261099 0.000176239
217 1 0.0240893 0.295858 0.152759
144 1 0.0550201 0.426188 0.0800825
116 1 0.211176 0.465886 0.0693376
72 1 0.189105 0.289268 0.126171
98 1 0.140945 0.380707 0.228747
326 2 0.0222972 0.330702 0.0063302
150 1 0.434647 0.305195 0.0781182
36 1 0.322409 0.444356 0.210391
356 2 0.312999 0.299291 0.14807
227 1 0.475403 0.488351 0.187217
173 1 0.294097 0.355654 0.0253583
51 1 0.355677 0.492499 0.0668778
111 1 0.406134 0.332732 0.246616
117 1 0.587295 0.320718 0.0288201
223 1 0.69083 0.302266 0.138365
242 1 0.506825 0.445859 0.0428322
282 1 0.547943 0.351648 0.175833
66 1 0.618636 0.488918 0.13913
339 2 0.71879 0.438382 0.0841264
352 2 0.941396 0.493381 0.0582849
37 1 0.906454 0.364567 0.0662155
288 1 0.855864 0.333196 0.234837
99 1 0.170691 0.535495 0.195162
295 2 0.121411 0.622926 0.128416
90 1 0.104069 0.721616 0.0434097
254 1 0.200467 0.700071 0.232876
226 1 0.0127818 0.537032 0.171369
328 2 0.237297 0.720469 0.0546429
158 1 0.0594097 0.568719 0.0313193
69 1 0.0111307 0.687427 0.167465
220 1 0.366052 0.668375 0.223273
232 1 0.277934 0.623178 0.114647
313 2 0.377068 0.558739 0.169327
216 1 0.446278 0.65015 0.112459
355 2 0.273555 0.582843 0.241546
312 2 0.662795 0.705295 0.0349628
268 1 0.578377 0.603127 0.0483988
280 1 0.69463 0.660575 0.1505
172 1 0.559039 0.610005 0.231317
194 1 0.742774 0.580665 0.0363664
287 1 0.82146 0.507606 0.136327
258 1 0.783673 0.726141 0.0526917
79 1 0.899195 0.608904 0.0251757
213 1 0.863013 0.635768 0.172993
340 2 0.780714 0.702489 0.234436
164 1 0.118857 0.991046 0.248052
271 1 0.185268 0.80919 0.115499
285 1 0.218507 0.968951 0.124502
182 1 0.0697612 0.899461 0.136444
311 2 0.037956 0.883512 0.0177476
174 1 0.164045 0.905547 0.00596881
29 1 0.328887 0.904505 0.0305957
278 1 0.356023 0.786771 0.121067
351 2 0.310913 0.891278 0.159556
125 1 0.459622 0.885372 0.0906863
196 1 0.409874 0.911014 0.241368
178 1 0.579895 0.789017 0.0936394
264 1 0.633618 0.916556 0.165302
307 2 0.59117 0.958304 0.0450591
191 1 0.504875 0.76946 0.210928
43 1 0.698207 0.795066 0.214531
122 1 0.718983 0.884767 0.0487727
360 2 0.545436 0.916968 0.240864
229 1 0.866609 0.788938 0.152268
244 1 0.92315 0.947538 0.0672822
235 1 0.956495 0.879529 0.21529
201 1 0.804472 0.900077 0.239362
203 1 0.940811 0.7715 0.0229788
100 1 0.161933 0.236144 0.267546
266 1 0.189243 0.0951472 0.337881
265 1 0.0425118 0.118706 0.323087
215 1 0.0277135 0.183167 0.463464
200 1 0.17746 0.223965 0.420442
250 1 0.10937 0.0356122 0.480686
33 1 0.263538 0.119572 0.472822
12 1 0.307301 0.205987 0.352282
302 2 0.481286 0.0246985 0.433543
161 1 0.380231 0.0599372 0.348578
319 2 0.43746 0.221429 0.354772
348 2 0.39529 0.146189 0.446642
176 1 0.527506 0.143193 0.410018
1 1 0.681886 0.0953813 0.347764
81 1 0.605452 0.0449498 0.472846
214 1 0.605718 0.22607 0.298655
86 1 0.535266 0.0346235 0.310261
231 1 0.773938 0.190032 0.257989
113 1 0.84328 0.0641763 0.325696
128 1 0.873606 0.197729 0.381281
256 1 0.942099 0.0471767 0.450448
17 1 0.756366 0.148523 0.469426
147 1 0.784711 0.000138374 0.445359
77 1 0.00604636 0.402643 0.255
78 1 0.00459241 0.273284 0.330728
290 2 0.136327 0.323547 0.368469
4 1 0.221923 0.366803 0.468179
180 1 0.0658727 0.333032 0.479713
45 1 0.112555 0.453543 0.345507
236 1 0.264011 0.352944 0.327865
309 2 0.410744 0.418947 0.339502
13 1 0.378427 0.316189 0.438166
210 1 0.345877 0.468109 0.456805
105 1 0.514302 0.33775 0.357944
245 1 0.566102 0.473258 0.314089
188 1 0.718762 0.41008 0.254758
338 2 0.628543 0.353786 0.345572
138 1 0.73393 0.28461 0.369538
261 1 0.6183 0.412752 0.487902
296 2 0.500483 0.370452 0.485578
73 1 0.605245 0.252452 0.46237
275 1 0.763363 0.421521 0.42058
48 1 0.897221 0.364396 0.373042
320 2 0.951309 0.279253 0.456483
183 1 0.88483 0.477766 0.259807
157 1 0.00521294 0.622068 0.293484
207 1 0.146864 0.600886 0.346193
344 2 0.227488 0.567662 0.437291
197 1 0.142138 0.653396 0.489325
80 1 0.258929 0.500122 0.343565
14 1 0.409749 0.54753 0.299483
134 1 0.30885 0.637795 0.355839
10 1 0.278268 0.732911 0.497822
153 1 0.497138 0.560044 0.440568
187 1 0.489389 0.687263 0.356821
330 2 0.612844 0.715676 0.264021
89 1 0.727245 0.564658 0.272336
324 2 0.576414 0.600628 0.353203
124 1 0.6691 0.540183 0.409998
82 1 0.715579 0.704917 0.33531
22 1 0.614908 0.676325 0.448965
345 2 0.500616 0.721585 0.475969
34 1 0.981864 0.507329 0.406264
212 1 0.975178 0.654132 0.435322
171 1 0.861694 0.602108 0.342219
283 1 0.837615 0.542439 0.485333
160 1 0.75268 0.656404 0.476069
279 1 0.0891054 0.821286 0.276635
246 1 0.156103 0.916999 0.372265
228 1 0.0155856 0.798506 0.414297
281 1 0.187403 0.757728 0.376267
140 1 0.00105222 0.951175 0.353534
84 1 0.270622 0.98241 0.281732
85 1 0.254736 0.834565 0.255257
335 2 0.250064 0.998816 0.441057
104 1 0.372707 0.772974 0.321853
49 1 0.303897 0.875438 0.405522
30 1 0.467473 0.890763 0.374791
175 1 0.408524 0.815017 0.491492
75 1 0.602653 0.828557 0.34534
337 2 0.602002 0.931548 0.412399
233 1 0.56978 0.818834 0.493108
241 1 0.72887 0.855743 0.43399
276 1 0.689076 0.946936 0.32712
251 1 0.859547 0.751724 0.433932
292 2 0.796146 0.80745 0.326009
195 1 0.914661 0.752797 0.292111
273 1 0.873662 0.896515 0.391914
106 1 0.145639 0.217452 0.558503
277 1 0.0648177 0.17119 0.689297
259 1 0.219425 0.128743 0.650164
126 1 0.00830036 0.0514649 0.621367
310 2 0.336281 0.0991898 0.573884
136 1 0.298719 0.247913 0.557793
325 2 0.420976 0.010358 0.636926
6 1 0.380879 0.16331 0.665512
26 1 0.32424 0.00599606 0.719537
272 1 0.476562 0.0907251 0.559172
107 1 0.45932 0.238466 0.531314
112 1 0.508763 0.0720526 0.712935
47 1 0.621249 0.14716 0.572545
166 1 0.668207 0.1818 0.728218
234 1 0.517441 0.215311 0.678204
102 1 0.639615 0.0185158 0.666155
202 1 0.751989 0.221649 0.62012
44 1 0.771268 0.0580654 0.595968
304 2 0.773938 0.0990126 0.720659
249 1 0.918063 0.146247 0.716773
137 1 0.894502 0.160232 0.546129
322 2 0.881487 0.237256 0.641394
218 1 0.112523 0.492471 0.503335
118 1 0.246021 0.358591 0.646295
18 1 0.0941854 0.384991 0.623099
240 1 0.129545 0.291106 0.745227
346 2 0.250124 0.458226 0.544227
163 1 0.32225 0.493085 0.661072
186 1 0.402941 0.31513 0.664353
15 1 0.446556 0.464805 0.571669
305 2 0.628235 0.259873 0.632843
152 1 0.547541 0.347864 0.607206
11 1 0.60103 0.475235 0.704713
260 1 0.698965 0.371285 0.62245
359 2 0.733194 0.47225 0.701142
263 1 0.981291 0.26895 0.591652
286 1 0.807509 0.286223 0.504388
50 1 0.996187 0.433885 0.727866
353 2 0.785877 0.434938 0.547532
101 1 0.935028 0.390174 0.522864
198 1 0.842315 0.363926 0.678041
179 1 0.963584 0.282542 0.746744
3 1 0.186511 0.690167 0.638783
247 1 0.13707 0.532529 0.637011
35 1 0.0243142 0.663119 0.588286
170 1 0.0703487 0.681981 0.737455
143 1 0.2579 0.585954 0.563037
20 1 0.401585 0.652602 0.524069
321 2 0.435689 0.578667 0.623213
269 1 0.328271 0.640828 0.687824
154 1 0.475525 0.605789 0.738388
252 1 0.505777 0.72531 0.605598
42 1 0.688721 0.517789 0.57289
289 2 0.545445 0.705498 0.717236
74 1 0.549493 0.588412 0.568192
119 1 0.638678 0.619782 0.679917
204 1 0.674472 0.743973 0.618319
354 2 0.74925 0.649382 0.627473
62 1 0.975049 0.52792 0.574575
133 1 0.837935 0.515575 0.634868
87 1 0.86175 0.675581 0.581194
53 1 0.807332 0.71055 0.71448
284 1 0.931244 0.590445 0.736565
41 1 0.026611 0.921433 0.512804
132 1 0.160069 0.830796 0.500678
65 1 0.147765 0.992943 0.716322
317 2 0.127647 0.91423 0.601087
60 1 0.0820115 0.790543 0.627813
114 1 0.239491 0.986943 0.58124
28 1 0.233588 0.835798 0.633179
58 1 0.0218225 0.909014 0.687572
38 1 0.367375 0.998777 0.503808
336 2 0.338224 0.763352 0.623241
342 2 0.297189 0.8805 0.749553
350 2 0.309268 0.876092 0.523407
267 1 0.397915 0.88626 0.628424
168 1 0.419253 0.751243 0.722246
162 1 0.519615 0.94906 0.538321
185 1 0.55136 0.850047 0.675148
167 1 0.671899 0.926018 0.546543
219 1 0.712359 0.860322 0.732752
120 1 0.880093 0.954122 0.549775
169 1 0.878311 0.996138 0.707589
347 2 0.768099 0.958307 0.663431
262 1 0.939577 0.803155 0.542143
221 1 0.793518 0.822959 0.570768
318 2 0.881651 0.875934 0.671431
225 1 0.941657 0.757068 0.684214
308 2 0.147882 0.172144 0.781485
76 1 0.0233693 0.0585196 0.783981
257 1 0.188621 0.206606 0.895312
141 1 0.120134 0.076061 0.918052
159 1 0.248815 0.0337265 0.975692
7 1 0.244424 0.0893065 0.819611
71 1 0.0390633 0.205434 0.857412
54 1 0.269842 0.244066 0.762549
23 1 0.444539 0.166152 0.970264
329 2 0.315602 0.143323 0.918002
148 1 0.361935 0.00301075 0.866758
192 1 0.405116 0.16313 0.819281
343 2 0.586201 0.216537 0.963929
19 1 0.72123 0.109459 0.895434
349 2 0.620717 0.0849908 0.78941
94 1 0.515975 0.0508278 0.884937
156 1 0.553155 0.1818 0.831983
31 1 0.98448 0.0293952 0.94287
129 1 0.815344 0.243255 0.770454
21 1 0.849446 0.108293 0.98103
222 1 0.951232 0.227146 0.999644
291 2 0.9094 0.203362 0.874624
184 1 0.872313 0.0743463 0.838058
56 1 0.161561 0.43866 0.754262
327 2 0.205573 0.344313 0.851501
270 1 0.236467 0.46755 0.927051
59 1 0.150932 0.345258 0.972604
190 1 0.0485574 0.352733 0.857269
253 1 0.460572 0.408225 0.760326
145 1 0.314148 0.395667 0.806672
315 2 0.465866 0.278583 0.797841
199 1 0.484028 0.301817 0.922381
208 1 0.336136 0.267182 0.905388
39 1 0.399416 0.445781 0.922654
341 2 0.717842 0.317472 0.75235
123 1 0.694111 0.253921 0.864398
323 2 0.605257 0.371741 0.909927
68 1 0.659727 0.479351 0.976333
135 1 0.592753 0.332399 0.767806
205 1 0.54164 0.471715 0.882796
155 1 0.712268 0.431545 0.837855
248 1 0.77069 0.322446 0.982965
211 1 0.975176 0.457141 0.952383
224 1 0.816538 0.457975 0.974435
206 1 0.888737 0.322051 0.888258
70 1 0.85735 0.441676 0.802658
334 2 0.0809602 0.547572 0.761322
189 1 0.186375 0.611535 0.777385
103 1 0.177605 0.625854 0.942081
358 2 0.140288 0.707477 0.847351
5 1 0.104941 0.501448 0.88448
131 1 0.0200791 0.61991 0.888789
61 1 0.336405 0.719103 0.986603
298 2 0.305181 0.587413 0.953745
149 1 0.324909 0.550737 0.819402
297 2 0.450592 0.555587 0.854586
16 1 0.433428 0.594699 0.964081
274 1 0.398931 0.685356 0.855354
306 2 0.26466 0.661831 0.857083
303 2 0.742654 0.542281 0.908662
333 2 0.644368 0.543963 0.812143
97 1 0.569739 0.626319 0.871365
142 1 0.703607 0.665455 0.922688
108 1 0.669121 0.737197 0.790123
316 2 0.855042 0.701633 0.946966
67 1 0.764697 0.582217 0.766182
299 2 0.792397 0.703508 0.835582
357 2 0.967997 0.515345 0.825759
9 1 0.868223 0.580662 0.883801
64 1 0.917388 0.724888 0.829072
165 1 0.215862 0.779747 0.927822
46 1 0.135125 0.822667 0.763612
110 1 0.055203 0.784771 0.89467
209 1 0.070186 0.938103 0.857262
230 1 0.223251 0.928222 0.850117
32 1 0.427685 0.903901 0.773955
193 1 0.255506 0.756466 0.771545
96 1 0.478574 0.754018 0.999135
92 1 0.347258 0.828979 0.878988
95 1 0.739144 0.995328 0.799664
55 1 0.503719 0.898157 0.920569
181 1 0.621937 0.801338 0.93955
177 1 0.64977 0.979606 0.930888
332 2 0.714361 0.88181 0.858407
130 1 0.517144 0.788524 0.81489
57 1 0.582947 0.94564 0.797017
109 1 0.797201 0.808635 0.921788
301 2 0.992758 0.818006 0.787997
294 2 0.949634 0.956687 0.803859
238 1 0.939065 0.879808 0.917852
25 1 0.805276 0.964245 0.937981
83 1 0.853646 0.862553 0.793483
ITEM: TIMESTEP
50000
ITEM: NUMBER OF ATOMS
360
ITEM: BOX BOUNDS pp pp pp
0.0000000000000000e+00 6.6943295008216896e+00
0.0000000000000000e+00 6.6943295008216896e+00
0.0000000000000000e+00 6.6943295008216896e+00
ITEM: ATOMS id type xs ys zs
151 1 0.126715 0.107859 0.0489941
105 1 0.0802378 0.0846421 0.208355
33 1 0.221547 0.225093 0.0911516
265 1 0.23472 0.109564 0.202081
291 2 0.99341 0.147471 0.0314963
243 1 0.0737385 0.233336 0.128617
356 2 0.276651 0.1203 0.0420647
246 1 0.413799 0.158466 0.149526
348 2 0.509041 0.106497 0.248557
345 2 0.438054 0.0269931 0.123802
38 1 0.369382 0.0351954 0.24384
40 1 0.368332 0.0854607 0.972631
138 1 0.52755 0.0945916 0.0726444
264 1 0.662526 0.058968 0.154074
1 1 0.557219 0.206877 0.199677
338 2 0.682521 0.17565 0.19617
139 1 0.632621 0.197049 0.0712935
30 1 0.527645 0.981133 0.209228
121 1 0.780023 0.147419 0.119374
223 1 0.924981 0.100773 0.151401
52 1 0.885036 0.198196 1.00928
244 1 0.852657 0.0601894 0.0148215
12 1 0.129959 0.379688 0.0909239
157 1 0.128645 0.462496 0.23607
236 1 0.226403 0.354363 0.193856
240 1 0.0164811 0.498654 0.0306314
335 2 0.085095 0.332077 0.208975
224 1 0.993282 0.39926 0.152828
116 1 0.351321 0.307041 0.118519
268 1 0.454653 0.423771 0.158554
158 1 0.276404 0.421127 0.0467557
298 2 0.429186 0.370294 0.0329898
214 1 0.435605 0.283228 0.243557
199 1 0.499591 0.289877 0.0863865
261 1 0.664935 0.340559 0.162809
275 1 0.536748 0.441322 0.0262686
117 1 0.680915 0.481803 0.0843116
353 2 0.548028 0.35823 0.222068
77 1 0.899166 0.266767 0.135148
231 1 0.784107 0.261253 0.233879
66 1 0.77094 0.281442 0.052285
217 1 0.977238 0.333412 0.0143968
21 1 0.799966 0.412722 0.124433
144 1 0.170036 0.537277 0.0968634
226 1 0.0265215 0.563785 0.165332
235 1 0.0963402 0.689068 0.0936915
303 2 0.00481649 0.626028 0.0330786
220 1 0.231288 0.652153 0.178689
36 1 0.394061 0.525338 0.0357967
216 1 0.312991 0.49993 0.177281
149 1 0.396593 0.654195 0.156032
312 2 0.431479 0.540512 0.183688
297 2 0.317877 0.624341 0.0691149
242 1 0.550924 0.5451 0.129292
285 1 0.538586 0.695364 0.115612
16 1 0.620074 0.630743 0.231078
248 1 0.667407 0.636415 0.0671
61 1 0.618701 0.46673 0.237312
142 1 0.748632 0.551825 0.183298
287 1 0.88408 0.555837 0.103752
229 1 0.942835 0.692662 0.119356
9 1 0.807547 0.695193 0.0469156
43 1 0.742425 0.723188 0.211191
300 2 0.773574 0.55254 0.0316574
306 2 0.229922 0.852105 0.0751032
92 1 0.131728 0.964254 0.134755
64 1 0.00352799 0.842273 0.108004
273 1 0.156959 0.806434 0.169799
5 1 0.0964557 0.833288 -0.00315823
358 2 0.109622 0.991458 0.993517
279 1 0.29542 1.00176 0.102365
351 2 0.440258 0.779762 0.132911
90 1 0.314855 0.785375 0.181674
84 1 0.466083 0.952555 0.0027631
125 1 0.480401 0.75395 0.253488
271 1 0.409362 0.912318 0.159022
278 1 0.347421 0.831136 0.0351387
319 2 0.592339 0.960669 0.0918088
360 2 0.618702 0.757585 0.203037
122 1 0.54516 0.851144 0.142786
63 1 0.678558 0.875226 0.212366
196 1 0.736335 0.95071 0.0755725
19 1 0.676277 0.800501 0.0841238
113 1 0.876567 0.952082 0.127106
164 1 0.848671 0.813326 0.13847
225 1 0.988443 0.96122 0.21668
110 1 0.0191546 0.0221391 0.0625768
256 1 0.144922 0.225184 0.281644
255 1 0.0652502 0.11118 0.370623
200 1 0.221028 0.182025 0.39904
201 1 0.181799 0.0216012 0.319716
45 1 0.991618 0.239624 0.262039
228 1 0.195492 0.01367 0.46682
161 1 0.409846 0.162435 0.336326
310 2 0.301207 0.11257 0.317086
272 1 0.295012 0.234096 0.255913
127 1 0.353449 0.10203 0.4773
47 1 0.494476 0.0226143 0.352204
337 2 0.454237 0.0271717 0.484679
102 1 0.647399 0.0170695 0.291955
17 1 0.525948 0.131091 0.453948
128 1 0.739877 0.164473 0.446728
245 1 0.626552 0.166831 0.32422
81 1 0.758613 0.0159867 0.420371
330 2 0.783029 0.0297731 0.169941
329 2 0.866459 0.169721 0.241495
288 1 0.928722 0.0765188 0.300972
88 1 0.765316 0.125813 0.291392
147 1 0.880946 0.0898874 0.433644
78 1 0.884891 0.215621 0.368169
347 2 0.842471 0.213828 0.501783
48 1 0.0721114 0.259692 0.4199
98 1 0.196773 0.350463 0.352152
34 1 0.0396605 0.379458 0.332964
218 1 0.158526 0.488984 0.441899
355 2 0.227921 0.475929 0.303165
99 1 0.295206 0.440955 0.441993
111 1 0.331395 0.382234 0.289082
143 1 0.33358 0.286324 0.436594
14 1 0.479826 0.427108 0.308145
176 1 0.493829 0.290863 0.381104
89 1 0.625167 0.264597 0.472036
124 1 0.637356 0.331368 0.30787
313 2 0.686647 0.4117 0.386822
172 1 0.568523 0.447886 0.430575
183 1 0.761961 0.29594 0.382352
213 1 0.764402 0.415342 0.266338
188 1 0.901736 0.352601 0.283739
283 1 0.932909 0.329931 0.455734
171 1 0.801717 0.436196 0.406677
324 2 0.938436 0.445459 0.368265
212 1 0.0534354 0.619296 0.457903
276 1 0.0425942 0.532415 0.32938
58 1 0.0336348 0.701424 0.241924
80 1 0.168034 0.606201 0.34211
203 1 0.179891 0.733547 0.487167
20 1 0.43346 0.513115 0.453375
134 1 0.349044 0.675451 0.30765
328 2 0.40368 0.636747 0.424782
10 1 0.2907 0.59382 0.456543
191 1 0.347402 0.527878 0.335282
104 1 0.486905 0.603142 0.312494
96 1 0.553945 0.6373 0.459733
153 1 0.648494 0.559336 0.372541
178 1 0.693668 0.742229 0.466345
207 1 0.990634 0.471994 0.482275
295 2 0.983114 0.636049 0.350331
69 1 0.902424 0.499833 0.243076
79 1 0.875431 0.654903 0.243121
339 2 0.792626 0.530178 0.314797
194 1 0.772424 0.648929 0.365864
195 1 0.891856 0.552957 0.403639
292 2 0.763903 0.566765 0.469165
316 2 0.937702 0.641643 0.497933
317 2 0.0808888 -0.0152146 0.386594
140 1 0.216909 0.747573 0.309981
182 1 0.0776361 0.887053 0.304065
197 1 0.0643106 0.753373 0.377767
26 1 0.202153 0.882851 0.376181
132 1 0.0799141 0.885649 0.476754
281 1 0.250224 0.923509 0.228745
162 1 0.339524 0.972215 0.402525
22 1 0.317745 0.754557 0.445153
85 1 0.361336 0.830023 0.317652
49 1 0.473979 0.911165 0.447689
266 1 0.472116 0.761133 0.419454
331 2 0.440315 0.928166 0.308971
95 1 0.603393 0.978795 0.472753
267 1 0.617806 0.734145 0.334776
321 2 0.593392 0.823803 0.434103
86 1 0.558606 0.883598 0.318615
91 1 0.686006 0.880533 0.379929
301 2 0.784647 0.819827 0.284808
8 1 0.966397 0.957239 0.380621
352 2 0.951519 0.872574 0.48377
258 1 0.929158 0.82673 0.271946
280 1 0.788182 0.969624 0.269215
75 1 0.912888 0.726579 0.391271
120 1 0.867256 0.962301 0.525139
137 1 0.0185731 0.0258151 0.512478
106 1 0.136768 0.156138 0.518202
230 1 0.111356 0.155951 0.73332
54 1 0.250448 0.0732665 0.59902
65 1 0.104422 0.0191777 0.662482
357 2 0.0168189 0.140601 0.644927
257 1 0.263811 0.187992 0.755578
325 2 0.384468 0.106131 0.601434
123 1 0.402513 0.22148 0.690951
239 1 0.284388 0.220682 0.599077
32 1 0.337313 0.0460675 0.723452
13 1 0.440314 0.225147 0.532145
259 1 0.498807 0.0651223 0.613506
44 1 0.642457 0.133262 0.568311
209 1 0.72081 0.209359 0.662525
202 1 0.633003 0.0392901 0.679074
156 1 0.570846 0.243972 0.633502
250 1 0.949063 0.176491 0.547382
249 1 0.797287 0.11663 0.575925
141 1 0.939126 0.0384322 0.63601
83 1 0.832252 0.0731661 0.736342
322 2 0.884713 0.16137 0.653134
71 1 0.997671 0.260932 0.708367
290 2 0.0729212 0.381375 0.46948
180 1 0.195185 0.319264 0.507443
315 2 0.171624 0.171212 0.632349
136 1 0.0428035 0.294287 0.565779
189 1 0.109704 0.441306 0.574212
18 1 0.0717602 0.396836 0.756868
186 1 0.171972 0.308091 0.665347
309 2 0.244043 0.431923 0.56942
346 2 0.415441 0.389944 0.424781
344 2 0.29165 0.339312 0.710424
305 2 0.461789 0.475302 0.650877
107 1 0.345452 0.364211 0.591479
253 1 0.348159 0.456083 0.726521
6 1 0.476487 0.360565 0.706477
73 1 0.711536 0.451364 0.520543
260 1 0.485919 0.372396 0.533707
129 1 0.653533 0.378037 0.647406
286 1 0.763237 0.301424 0.541325
234 1 0.571897 0.478875 0.728193
263 1 0.969569 0.431224 0.631738
320 2 0.857356 0.394513 0.537912
215 1 0.891412 0.296023 0.6051
42 1 0.820251 0.448985 0.656813
304 2 0.768187 0.327783 0.669189
53 1 0.0212483 0.750451 0.544295
7 1 0.153659 0.587399 0.560876
35 1 0.194056 0.469534 0.69093
354 2 0.122842 0.709234 0.599531
179 1 0.0838147 0.565874 0.737158
262 1 0.0524169 0.728127 0.707226
60 1 0.195107 0.667209 0.715332
163 1 0.34604 0.520887 0.58965
336 2 0.278207 0.563632 0.703267
3 1 0.286333 0.689904 0.58838
210 1 0.416186 0.586324 0.727065
167 1 0.443782 0.654035 0.562535
15 1 0.359471 0.739336 0.720518
74 1 0.675158 0.608277 0.544591
359 2 0.705536 0.505132 0.649421
187 1 0.55699 0.505449 0.568096
152 1 0.586122 0.633508 0.679051
219 1 0.562862 0.768997 0.548396
241 1 0.682026 0.738357 0.633097
247 1 -0.00475805 0.593459 0.598211
82 1 0.780007 0.611842 0.658596
233 1 0.828392 0.680665 0.523554
62 1 0.871411 0.532424 0.545872
251 1 0.916927 0.557276 0.712643
160 1 0.894537 0.708372 0.691925
308 2 0.160465 0.948534 0.566156
252 1 0.142411 0.836672 0.616184
126 1 0.999551 0.907072 0.611349
114 1 0.240353 0.934621 0.686048
4 1 0.368275 0.971661 0.564912
342 2 0.273516 0.815276 0.655427
175 1 0.247119 0.863849 0.519699
168 1 0.403358 0.887184 0.731878
57 1 0.384675 0.820025 0.58992
112 1 0.52554 0.920096 0.594909
302 2 0.705876 0.0127035 0.551788
177 1 0.69131 0.868076 0.549216
154 1 0.516298 0.766208 0.703851
332 2 0.537214 0.904641 0.740616
221 1 0.648137 0.87861 0.693607
41 1 0.840501 0.877349 0.394374
166 1 0.769319 0.954007 0.649886
327 2 0.962711 0.826038 0.714679
299 2 0.892442 0.929581 0.700322
169 1 0.852626 0.819983 0.564549
130 1 0.824173 0.830848 0.730567
311 2 0.777417 0.95387 0.780011
349 2 0.198187 0.0646343 0.724811
148 1 0.223782 0.0255111 0.967621
146 1 0.136759 0.127717 0.875518
72 1 0.109403 0.2509 0.982624
293 2 0.485499 0.189567 -0.000819202
100 1 0.252309 0.198241 0.932344
135 1 0.417613 0.162683 0.841086
307 2 0.302033 0.088261 0.860946
208 1 0.488886 0.0223941 0.754863
115 1 0.645481 0.0503763 0.995807
25 1 0.553335 0.155795 0.749263
2 1 0.527884 0.0705948 0.915894
343 2 0.72777 0.248081 0.866084
24 1 0.579661 0.217931 0.902053
109 1 0.70981 0.142866 0.807995
31 1 0.725939 0.167783 0.957855
170 1 -0.00609009 0.0782584 0.918972
277 1 0.969079 0.124163 0.76893
76 1 0.842212 0.251456 0.749809
93 1 0.983795 0.258785 0.855295
174 1 0.854328 0.125567 0.879736
294 2 0.0741984 0.00965589 0.777324
159 1 0.151613 0.279137 0.820889
222 1 0.0815262 0.389578 0.915061
190 1 0.221279 0.365462 0.925103
334 2 0.125826 0.477701 0.988041
118 1 0.171281 0.490934 0.841705
211 1 0.0161095 0.526124 0.873684
296 2 0.267901 0.410437 0.818918
282 1 0.388989 0.26252 0.976196
173 1 0.349686 0.30006 0.825698
227 1 0.496062 0.34334 0.901803
59 1 0.344647 0.438893 0.918361
323 2 0.431636 0.432754 0.813494
341 2 0.500909 0.262593 0.79874
184 1 0.641282 0.340838 0.988331
51 1 0.614541 0.315618 0.776111
150 1 0.601514 0.456094 0.876256
70 1 0.736189 0.454567 0.944868
101 1 0.747249 0.371794 0.798172
37 1 0.881642 0.443584 0.982411
326 2 0.953133 0.391267 0.878007
50 1 0.904106 0.381292 0.753029
206 1 0.833861 0.314994 0.905237
133 1 0.879013 0.497981 0.842895
56 1 0.109549 0.613924 0.955948
350 2 0.154776 0.623259 0.831169
232 1 0.250177 0.6989 0.885765
254 1 0.230668 0.709008 0.0340865
270 1 0.251516 0.557005 0.98244
27 1 0.384324 0.674037 0.969447
145 1 0.321134 0.560685 0.840954
131 1 0.464855 0.532025 0.880475
55 1 0.470199 0.693484 0.84388
289 2 0.636942 0.53642 0.970686
11 1 0.736298 0.522193 0.786256
155 1 0.713165 0.707549 0.784191
39 1 0.527326 0.617559 0.987622
198 1 0.60248 0.613255 0.833478
68 1 0.674111 0.747456 0.945293
205 1 0.74546 0.616663 0.911128
87 1 0.989443 0.669629 0.826222
333 2 0.827047 0.604055 0.783918
165 1 0.953908 0.749682 0.976259
284 1 0.888724 0.599793 0.955834
97 1 0.845381 0.73373 0.875237
28 1 0.0735755 0.88026 0.738626
103 1 0.10983 0.76261 0.87248
193 1 0.0684064 0.93879 0.885097
274 1 0.234965 0.821883 0.787606
29 1 0.220648 0.874835 0.929213
192 1 0.214845 0.987308 0.822678
314 2 0.329751 0.955368 0.977568
237 1 0.381078 0.981669 0.857512
269 1 0.366165 0.806198 0.883446
119 1 0.50472 0.787679 1.00692
318 2 0.625609 0.785664 0.779612
185 1 0.515737 0.866868 0.86573
23 1 0.619038 0.975143 0.836094
204 1 0.712713 0.853254 0.839104
94 1 0.609766 0.897155 0.992943
238 1 0.92356 0.969882 0.827721
181 1 0.787364 0.97941 0.918505
108 1 0.800253 0.835109 0.97911
67 1 0.969566 0.821232 0.844466
340 2 0.844267 0.877152 0.87177
46 1 0.928307 0.909093 0.976187
ITEM: TIMESTEP
100000
ITEM: NUMBER OF ATOMS
360
ITEM: BOX BOUNDS pp pp pp
0.0000000000000000e+00 6.6943295008216896e+00
0.0000000000000000e+00 6.6943295008216896e+00
0.0000000000000000e+00 6.6943295008216896e+00
ITEM: ATOMS id type xs ys zs
33 1 0.185808 0.208647 0.100041
193 1 0.0635325 0.033898 0.0810982
255 1 0.053019 0.227869 0.176356
105 1 0.155465 0.0910936 0.203209
113 1 0.0190839 0.175267 0.0349293
64 1 0.992094 0.0862446 0.237789
273 1 0.261608 0.0246119 0.0304903
279 1 0.308873 0.143568 0.156351
231 1 0.40293 0.0193115 0.0829353
1 1 0.485774 0.160847 0.0966359
88 1 0.39637 0.130409 0.980828
281 1 0.310874 0.0160239 0.241178
348 2 0.434827 0.112779 0.202279
138 1 0.270215 0.208017 0.960244
52 1 0.635853 0.136688 0.197382
264 1 0.520908 0.0204908 0.180012
196 1 0.670766 0.0836708 0.0577067
330 2 0.579414 0.166547 -0.00260246
63 1 0.75847 0.0189607 0.206092
329 2 0.775936 0.130893 0.114226
288 1 0.900363 0.267701 0.170098
244 1 0.907998 0.122616 0.103554
110 1 0.822227 0.153525 0.235777
40 1 0.243951 0.3519 0.98816
243 1 0.148292 0.362895 0.137871
290 2 0.00964712 0.469228 0.0675271
80 1 0.0899291 0.511825 0.161173
161 1 0.232171 0.413617 0.271656
293 2 0.277633 0.340866 0.153305
199 1 0.348886 0.264284 0.0792594
214 1 0.398662 0.396914 0.0720946
298 2 0.53475 0.442087 0.0888626
216 1 0.4785 0.376104 0.209167
116 1 0.485394 0.555323 0.172765
246 1 0.361755 0.290529 0.239466
31 1 0.683906 0.235917 0.0235118
353 2 0.61146 0.238469 0.126831
139 1 0.525579 0.306658 0.0388964
339 2 0.729922 0.356195 0.228609
261 1 0.616463 0.359435 0.16132
149 1 0.588177 0.482342 0.261878
77 1 0.737842 0.248092 0.159878
224 1 0.0102216 0.326289 0.0502226
142 1 0.856715 0.42768 0.23134
335 2 0.896814 0.374034 0.0919591
66 1 0.77635 0.38461 0.0689358
272 1 0.0123368 0.390721 0.182421
69 1 0.894277 0.511852 0.104951
242 1 0.729243 0.487303 0.185217
236 1 0.235754 0.481856 0.118652
27 1 0.184139 0.608865 0.0678387
316 2 0.0840398 0.636943 0.163952
97 1 0.101165 0.750885 0.0784757
258 1 0.217065 0.606393 0.222525
58 1 0.0303643 0.594045 0.0357735
157 1 0.412392 0.564992 0.00975033
119 1 0.33748 0.615571 0.121383
158 1 0.359877 0.494086 0.222375
306 2 0.2943 0.61718 0.0122036
351 2 0.406194 0.799073 0.270033
36 1 0.495648 0.671906 0.0852643
278 1 0.262309 0.753504 0.0969333
254 1 0.369531 0.698183 0.962919
131 1 0.591587 0.547562 0.0475318
297 2 0.5321 0.600603 0.284212
16 1 0.624554 0.618496 0.194996
68 1 0.664525 0.670911 0.0458302
152 1 0.960076 0.743565 0.0245875
284 1 0.962737 0.646006 0.161634
79 1 0.808114 0.643817 0.133769
356 2 0.199853 0.986729 0.157855
235 1 0.151747 0.91249 0.0634394
93 1 0.999193 0.882603 0.072208
41 1 0.0679559 0.935684 0.203887
85 1 0.161407 0.754033 0.216585
164 1 0.00223165 0.790339 0.204657
148 1 0.311722 0.881929 0.0337528
84 1 0.406136 0.783 0.132218
271 1 0.260101 0.876217 0.189962
319 2 0.391305 0.915512 0.173211
285 1 0.591017 0.80474 0.102718
122 1 0.654706 0.939083 0.146731
81 1 0.729288 0.769767 0.166082
302 2 0.704932 0.85571 0.0458803
185 1 0.472063 0.90283 0.0835851
229 1 0.79445 0.953831 0.0468409
294 2 0.794958 0.91246 0.166233
9 1 0.868654 0.82006 0.124815
165 1 0.90599 0.976794 0.158692
200 1 0.0905708 0.141783 0.347484
228 1 0.240288 0.120643 0.337894
310 2 0.155935 0.235871 0.411547
136 1 0.138965 0.0410094 0.470372
78 1 0.085252 0.188578 0.513715
30 1 0.450004 0.0165903 0.323326
106 1 0.277068 0.136176 0.482318
38 1 0.382836 0.159879 0.306461
331 2 0.353228 0.0778905 0.400736
17 1 0.435104 0.179408 0.464969
124 1 0.462971 0.0218004 0.47191
344 2 0.54709 0.101736 0.272192
147 1 0.707611 0.116739 0.337009
14 1 0.572207 0.119698 0.402598
121 1 0.509036 0.228313 0.241662
183 1 0.704325 0.0979785 0.490809
95 1 0.742815 0.981699 0.401519
225 1 0.951579 0.208765 0.331727
126 1 0.866731 0.0989192 0.571043
283 1 0.836142 0.138469 0.423481
45 1 0.878592 0.296596 0.459333
280 1 0.863386 0.0249732 0.314059
230 1 0.992064 0.0956647 0.456249
265 1 0.212114 0.254633 0.247959
256 1 0.0710566 0.305909 0.304797
99 1 0.0208031 0.455735 0.393093
355 2 0.10584 0.436626 0.273325
98 1 0.159357 0.383613 0.426334
162 1 0.293018 0.258756 0.395376
346 2 0.390425 0.401068 0.298599
268 1 0.454533 0.318721 0.362566
13 1 0.375046 0.326337 0.498096
191 1 0.309774 0.431939 0.404989
172 1 0.443574 0.510823 0.334375
107 1 0.485543 0.440123 0.487089
260 1 0.674711 0.23431 0.435125
21 1 0.656205 0.26537 0.284578
312 2 0.554586 0.243284 0.438623
153 1 0.587452 0.359139 0.399239
61 1 0.732112 0.465493 0.336746
104 1 0.649659 0.498098 0.463178
188 1 0.741897 0.375429 0.464093
309 2 0.940151 0.356754 0.316859
48 1 0.810077 0.290911 0.319438
213 1 0.877879 0.440989 0.389404
62 1 0.920356 0.426349 0.559417
328 2 0.0601265 0.503603 0.495409
182 1 0.0583215 0.66812 0.298592
220 1 0.144135 0.535585 0.330967
90 1 0.194054 0.690008 0.368083
189 1 0.0667875 0.626433 0.440127
53 1 0.218862 0.550095 0.478227
20 1 0.426816 0.669276 0.298631
134 1 0.318274 0.58035 0.366153
359 2 0.435219 0.622963 0.410954
3 1 0.458647 0.70624 0.509399
287 1 0.709738 0.704174 0.304869
43 1 0.535254 0.735798 0.223956
267 1 0.586609 0.65771 0.386164
292 2 0.680167 0.570139 0.305794
96 1 0.742789 0.605741 0.413752
34 1 0.811078 0.585071 0.272091
75 1 0.977326 0.769939 0.373598
276 1 0.869714 0.736898 0.266664
212 1 0.972265 0.53361 0.280398
74 1 0.888225 0.623884 0.409116
321 2 0.97376 0.691998 0.485292
92 1 0.028804 0.984084 0.348446
49 1 0.190324 0.970297 0.319451
345 2 0.233545 0.812829 0.315732
111 1 0.196505 0.864202 0.439362
201 1 0.0957919 0.835031 0.324202
233 1 0.0802581 0.76695 0.503656
22 1 0.301941 0.73354 0.254692
125 1 0.491352 0.888685 0.249447
7 1 0.322808 0.756853 0.413323
4 1 0.409769 0.893092 0.483183
140 1 0.280125 0.974805 0.439153
47 1 0.348835 0.889667 0.322675
86 1 0.47676 0.792394 0.376162
338 2 0.511928 0.915179 0.376444
360 2 0.631622 0.860196 0.239533
245 1 0.633959 0.975125 0.292524
128 1 0.599096 0.976311 0.42769
102 1 0.628725 0.838886 0.368339