ITEM: TIMESTEP
0
ITEM: NUMBER OF ATOMS
360
ITEM: BOX BOUNDS pp pp pp
0.0000000000000000e+00 6.6943295008216896e+00
0.0000000000000000e+00 6.6943295008216896e+00
0.0000000000000000e+00 6.6943295008216896e+00
ITEM: ATOMS id type xs ys zs
118 1 0.115464 0.0748726 0.156919
355 2 0.158214 0.198162 0.154164
194 1 0.00407755 0.192019 0.130561
68 1 0.246741 0.0264844 0.153569
117 1 0.121814 0.188159 0.0418456
255 1 0.18186 0.0460257 0.0211208
279 1 0.260333 0.154639 0.0853345
197 1 0.385667 0.117844 0.179734
29 1 0.482747 0.0374489 0.0319865
302 2 0.339949 0.0107369 0.063302
331 2 0.465331 0.200344 0.00107557
69 1 0.522778 0.1678 0.103325
271 1 0.704957 0.155447 0.119429
232 1 0.603749 0.0370905 0.165937
18 1 0.875498 0.162536 0.205339
221 1 0.894852 0.150119 0.0444009
100 1 0.79641 0.0278451 0.0977753
325 2 0.98249 0.231619 0.0142741
136 1 0.956246 0.00846943 0.128939
319 2 0.859981 0.00416623 0.213411
214 1 0.138602 0.342272 0.144894
20 1 0.177476 0.446053 0.0407138
49 1 0.0591104 0.497082 0.132082
208 1 0.301238 0.256785 0.204291
84 1 0.310099 0.411108 0.135814
5 1 0.373499 0.257563 0.0681204
185 1 0.442939 0.324033 0.176559
311 2 0.345809 0.379511 0.248169
298 2 0.472892 0.44359 0.109542
164 1 0.395207 0.414094 0.000190265
127 1 0.480707 0.474677 0.234111
335 2 0.570991 0.268875 0.176513
45 1 0.602797 0.39338 0.177023
146 1 0.511463 0.324221 0.0237327
149 1 0.732804 0.288211 0.224821
173 1 0.663656 0.311216 0.0726987
334 2 0.605572 0.424965 0.0357594
71 1 0.765703 0.404714 0.128049
236 1 0.980178 0.346942 0.122392
64 1 0.834278 0.273502 0.113534
266 1 0.924177 0.484357 0.194079
338 2 0.880315 0.411532 0.0639096
133 1 0.186123 0.508266 0.204676
351 2 0.107961 0.613702 0.196113
238 1 0.216089 0.62083 0.115433
224 1 0.0715787 0.654767 0.0848697
107 1 0.427834 0.552247 0.067318
354 2 0.354359 0.659531 0.0969916
152 1 0.468997 0.674239 0.154078
312 2 0.301639 0.532995 0.0845527
141 1 0.316281 0.730659 0.227117
101 1 0.346049 0.560763 0.209788
2 1 0.577106 0.523234 0.105872
114 1 0.617162 0.660564 0.211468
314 2 0.685586 0.610003 0.114725
123 1 0.711735 0.513321 0.00697975
121 1 0.574262 0.6571 0.0347241
186 1 0.701035 0.528727 0.200469
113 1 0.766253 0.650167 0.015622
198 1 0.824992 0.539045 0.093443
283 1 0.880658 0.728481 0.0863882
172 1 0.805439 0.633776 0.216195
13 1 0.959837 0.623768 0.18084
47 1 0.940793 0.599864 0.0257719
248 1 0.170281 0.767379 0.138736
252 1 0.0196206 0.810936 0.138563
296 2 0.119519 0.833013 0.02876
254 1 0.120466 0.924586 0.142838
44 1 0.230935 0.898816 0.0518141
288 1 0.0326853 0.928709 0.00535903
23 1 0.398766 0.970259 0.187963
21 1 0.273419 0.884341 0.212688
151 1 0.322678 0.777074 0.0608022
256 1 0.380374 0.898629 0.0179797
276 1 0.430756 0.827058 0.151006
356 2 0.544188 0.776145 0.136228
358 2 0.521534 0.941852 0.225552
104 1 0.542456 0.913905 0.101372
73 1 0.632843 0.849724 0.22515
322 2 0.715992 0.989101 0.187879
159 1 0.644461 0.779342 0.0302845
140 1 0.717948 0.906778 0.0631351
134 1 0.752724 0.783852 0.155498
112 1 0.88439 0.769237 0.236199
231 1 0.871118 0.887274 0.136788
170 1 0.982607 0.900556 0.245116
306 2 0.915531 0.837644 0.0209473
268 1 0.245661 0.119338 0.286969
278 1 0.130787 0.0208644 0.291491
76 1 0.23308 0.0510052 0.428292
187 1 0.100303 0.19869 0.260241
27 1 0.0930412 0.119442 0.394203
165 1 0.191574 0.248278 0.379578
330 2 0.0606962 0.249683 0.382756
196 1 0.472683 0.222673 0.277057
40 1 0.372262 0.00316136 0.321702
259 1 0.393438 0.156782 0.383423
162 1 0.498163 0.0533115 0.281848
243 1 0.295448 0.240776 0.485633
1 1 0.530111 0.0746989 0.412433
9 1 0.556131 0.232194 0.417526
89 1 0.689649 0.09537 0.399915
51 1 0.613898 0.154483 0.273537
161 1 0.989603 0.0660975 0.270002
321 2 0.98112 0.240361 0.252663
24 1 0.755381 0.087633 0.254701
299 2 0.874155 0.0933393 0.343743
115 1 0.783669 0.204838 0.337819
4 1 0.946201 0.180239 0.36483
263 1 0.816234 0.157259 0.47587
125 1 0.837627 0.00347884 0.497033
138 1 0.969386 0.0486282 0.435832
30 1 0.205912 0.368584 0.279367
218 1 0.124865 0.430241 0.398181
275 1 0.049337 0.391695 0.25603
15 1 0.302766 0.461721 0.329673
235 1 0.343766 0.290317 0.338297
90 1 0.441904 0.489703 0.386305
7 1 0.426919 0.330212 0.453267
303 2 0.308873 0.382046 0.447385
242 1 0.498819 0.369485 0.325374
80 1 0.662644 0.415919 0.308159
352 2 0.61855 0.277059 0.302313
142 1 0.726394 0.461236 0.458869
245 1 0.577867 0.391924 0.463345
3 1 0.697698 0.311778 0.401443
318 2 0.504512 0.484783 0.494405
87 1 0.994121 0.349045 0.391531
63 1 0.886831 0.33021 0.262143
98 1 0.820969 0.455039 0.304023
226 1 0.850784 0.365981 0.438187
308 2 0.953208 0.454174 0.330023
300 2 0.202456 0.524452 0.333901
46 1 0.205926 0.637061 0.291311
34 1 0.0374136 0.718948 0.270442
222 1 0.138592 0.610899 0.418748
55 1 0.0682026 0.551253 0.301421
332 2 0.0826443 0.699857 0.494367
126 1 0.251003 0.507329 0.465119
143 1 0.32588 0.607369 0.382259
175 1 0.464476 0.624176 0.464987
66 1 0.48817 0.622921 0.301187
359 2 0.382413 0.725048 0.331312
176 1 0.256715 0.748564 0.379688
269 1 0.352815 0.749389 0.497102
320 2 0.581037 0.525283 0.260194
28 1 0.618306 0.692089 0.378993
177 1 0.740834 0.587398 0.360693
48 1 0.591078 0.515445 0.388697
326 2 0.746142 0.663687 0.478546
265 1 0.99811 0.510328 0.44695
212 1 0.843315 0.545562 0.465811
191 1 0.988498 0.669105 0.427527
264 1 0.916999 0.566252 0.314378
128 1 0.834715 0.702936 0.406005
25 1 0.124378 0.866067 0.291431
309 2 0.176771 0.755226 0.251903
78 1 0.115301 0.792528 0.414518
192 1 0.105321 0.950423 0.439331
350 2 0.0227523 0.962681 0.349078
291 2 0.250169 0.98663 0.270065
340 2 0.45954 0.990748 0.473641
85 1 0.250641 0.907526 0.356228
277 1 0.381428 0.851738 0.306732
282 1 0.469043 0.768465 0.419604
257 1 0.358101 0.921987 0.469326
247 1 0.490772 0.911812 0.361238
160 1 0.512828 0.763555 0.26532
213 1 0.730608 0.751991 0.301346
347 2 0.607818 0.819089 0.338585
38 1 0.63916 0.972135 0.321417
220 1 0.718156 0.854175 0.40791
33 1 0.605777 0.946616 0.473765
261 1 0.963184 0.814707 0.37565
344 2 0.776339 0.983322 0.380087
43 1 0.898919 0.948298 0.354175
343 2 0.843724 0.833185 0.335216
35 1 0.782653 0.911832 0.264224
207 1 0.856526 0.833447 0.490746
240 1 0.193365 0.143569 0.527046
119 1 0.161636 0.117967 0.689121
124 1 0.0784674 0.0647451 0.549216
200 1 0.0154098 0.192311 0.647033
307 2 0.169136 0.244699 0.616461
182 1 0.23964 0.00380698 0.637768
154 1 0.443095 0.195363 0.533754
50 1 0.352019 0.0603462 0.529255
163 1 0.28311 0.182883 0.636517
317 2 0.345158 0.0443269 0.667596
10 1 0.422227 0.154701 0.681851
180 1 0.474834 0.0119801 0.599611
353 2 0.68842 0.195109 0.513167
158 1 0.579518 0.129834 0.57013
137 1 0.702659 0.0590297 0.550702
202 1 0.696518 0.185552 0.658787
228 1 0.588531 0.110613 0.717349
210 1 0.73324 0.0102163 0.692954
8 1 0.992231 0.204103 0.507114
56 1 0.926428 0.0839597 0.581167
336 2 0.803929 0.0757721 0.613566
144 1 0.846417 0.175644 0.677325
206 1 0.127004 0.294862 0.518222
156 1 0.106624 0.339282 0.673245
273 1 0.101225 0.443242 0.558129
157 1 0.045718 0.482987 0.738296
26 1 0.236323 0.371818 0.588202
116 1 0.247068 0.303354 0.732459
60 1 0.390459 0.467926 0.547713
253 1 0.372899 0.311637 0.607273
190 1 0.413229 0.464231 0.729172
310 2 0.301903 0.433814 0.664584
315 2 0.55684 0.277787 0.534717
145 1 0.557158 0.250318 0.662606
181 1 0.508007 0.38051 0.5909
184 1 0.692047 0.321153 0.558445
251 1 0.63653 0.469516 0.583431
289 2 0.615099 0.356337 0.668911
72 1 0.727573 0.488138 0.706029
31 1 0.584099 0.444675 0.742057
97 1 0.855408 0.280896 0.562439
62 1 0.781419 0.32539 0.681135
234 1 0.841773 0.433327 0.588925
217 1 0.970153 0.371433 0.539025
67 1 0.942666 0.330355 0.691026
83 1 0.242758 0.526932 0.616351
178 1 0.217612 0.675993 0.521221
81 1 0.094435 0.605056 0.580518
199 1 0.00588233 0.631868 0.70152
270 1 0.224326 0.680656 0.708689
316 2 0.135861 0.57691 0.695766
324 2 0.109553 0.718673 0.745794
305 2 0.314426 0.748706 0.615491
148 1 0.359877 0.613655 0.560689
70 1 0.394924 0.613185 0.742457
36 1 0.437383 0.73636 0.617335
105 1 0.501919 0.577719 0.633162
179 1 0.612478 0.610645 0.513906
272 1 0.600701 0.703358 0.623583
342 2 0.625196 0.590384 0.647136
339 2 0.520108 0.716555 0.523129
211 1 0.748236 0.660433 0.713479
193 1 0.974339 0.522631 0.605575
74 1 0.905918 0.650184 0.561593
250 1 0.755253 0.575824 0.585855
287 1 0.864584 0.567686 0.699503
188 1 0.776853 0.734698 0.580819
262 1 0.0291796 0.995657 0.687996
274 1 0.105676 0.75234 0.601638
313 2 0.00542853 0.766393 0.697639
337 2 0.19669 0.965718 0.521927
42 1 0.0104696 0.849923 0.522476
171 1 0.221476 0.843023 0.525972
120 1 0.114977 0.915844 0.599991
99 1 0.214173 0.834541 0.664914
216 1 0.0899628 0.848298 0.745266
227 1 0.347578 0.874573 0.619326
155 1 0.471659 0.865103 0.690984
201 1 0.481493 0.879671 0.537392
39 1 0.360107 0.759811 0.743909
260 1 0.62211 0.788537 0.503108
135 1 0.603158 0.960628 0.643121
293 2 0.583829 0.844328 0.600545
147 1 0.731566 0.88464 0.572332
258 1 0.624571 0.810724 0.729552
327 2 0.986061 0.971283 0.560784
267 1 0.87421 0.929181 0.629009
65 1 0.910973 0.788048 0.636975
109 1 0.790938 0.830494 0.731106
329 2 0.0847292 0.0812578 0.771738
167 1 0.0803427 0.207653 0.792301
225 1 0.126417 0.0906929 0.891361
346 2 0.248377 0.0751678 0.922711
297 2 0.190311 0.163072 0.7999
16 1 0.0186246 0.0738436 0.998452
294 2 0.113322 0.216893 0.918126
129 1 0.237226 0.198725 0.933097
284 1 0.444695 0.0230811 0.76446
203 1 0.280892 0.0641894 0.788013
249 1 0.365944 0.126983 0.964261
54 1 0.326023 0.207222 0.804014
295 2 0.442622 0.139469 0.816479
286 1 0.657913 0.0329713 0.988953
189 1 0.61338 0.183785 0.974614
241 1 0.537186 0.245843 0.856365
88 1 0.67757 0.217046 0.808453
229 1 0.525634 0.0913839 0.893723
204 1 0.674377 0.0307392 0.836689
122 1 0.770064 0.23748 0.973138
53 1 0.948702 0.0925444 0.773252
290 2 0.965708 0.224774 0.767985
132 1 0.983912 0.182486 0.901678
246 1 0.799403 0.109029 0.794328
360 2 0.902964 0.0475153 0.887667
86 1 0.864703 0.243007 0.841386
91 1 0.794339 0.0772989 0.937401
328 2 0.174653 0.430221 0.752344
92 1 0.0661107 0.327596 0.979264
209 1 0.153285 0.320305 0.849289
150 1 0.237525 0.327817 0.991054
345 2 0.0488236 0.478678 0.886432
131 1 0.171043 0.468284 0.887759
223 1 0.428242 0.300126 0.761501
292 2 0.287408 0.454385 0.959445
12 1 0.401887 0.277582 0.91558
111 1 0.307329 0.384026 0.854684
94 1 0.500401 0.404219 0.884769
333 2 0.619247 0.345603 0.804642
93 1 0.638012 0.326776 0.925679
166 1 0.671278 0.469819 0.86046
79 1 0.991891 0.342794 0.845905
323 2 0.777766 0.376859 0.966947
237 1 0.854168 0.491133 0.952807
130 1 0.772251 0.351559 0.830972
37 1 0.90846 0.332488 0.968119
19 1 0.884295 0.449333 0.805444
103 1 0.99329 0.461124 0.995508
281 1 0.132503 0.613288 0.810207
280 1 0.166625 0.7065 0.98287
32 1 0.0848046 0.577846 0.957306
59 1 0.0357691 0.717618 0.853143
230 1 0.375678 0.66846 0.971161
58 1 0.253985 0.578934 0.978322
205 1 0.255963 0.524969 0.774712
233 1 0.385627 0.52445 0.891928
153 1 0.287413 0.654005 0.842343
341 2 0.49717 0.523426 0.835936
348 2 0.399738 0.704855 0.861815
6 1 0.579446 0.603957 0.763146
110 1 0.505692 0.640039 0.902635
75 1 0.504182 0.732052 0.755128
96 1 0.551642 0.515825 0.96227
357 2 0.689724 0.57669 0.805358
82 1 0.654101 0.616531 0.919707
14 1 0.725057 0.737148 0.847752
102 1 0.88992 0.705974 0.765758
11 1 0.796562 0.587229 0.845476
95 1 0.972912 0.577914 0.851419
41 1 0.900251 0.708852 0.92367
219 1 0.156524 0.976235 0.78446
244 1 0.245688 0.942201 0.92152
183 1 0.0145994 0.77263 0.990894
215 1 0.0152945 0.990702 0.866786
285 1 0.125817 0.840125 0.888525
304 2 0.227195 0.776601 0.796191
195 1 0.400789 0.992424 0.911657
108 1 0.299349 0.907418 0.782435
239 1 0.280947 0.798881 0.912119
61 1 0.471265 0.791931 0.980141
106 1 0.436483 0.849163 0.848712
168 1 0.56065 0.939316 0.793445
52 1 0.548861 0.929712 0.935321
22 1 0.589046 0.771037 0.889591
169 1 0.698601 0.884194 0.854654
17 1 0.94279 0.890468 0.757619
301 2 0.755794 0.957131 0.948073
77 1 0.877593 0.962923 0.980517
174 1 0.931965 0.858741 0.891867
139 1 0.822768 0.964815 0.832027
57 1 0.795723 0.803236 0.989709
349 2 0.834103 0.804668 0.848898
ITEM: TIMESTEP
50000
ITEM: NUMBER OF ATOMS
360
ITEM: BOX BOUNDS pp pp pp
0.0000000000000000e+00 6.6943295008216896e+00
0.0000000000000000e+00 6.6943295008216896e+00
0.0000000000000000e+00 6.6943295008216896e+00
ITEM: ATOMS id type xs ys zs
360 2 0.179116 0.0364644 0.160097
218 1 0.156994 0.18758 0.0942628
49 1 0.175677 0.149964 0.233937
132 1 0.056076 0.0875896 0.124086
295 2 0.167053 0.291525 0.202312
194 1 0.255973 0.0727514 0.0584125
268 1 0.304853 0.176234 0.157737
355 2 0.353093 -0.00506002 0.0776514
136 1 0.345288 0.0508565 0.216853
335 2 0.44698 0.137706 0.191006
185 1 0.418081 0.121162 0.0677156
69 1 0.466736 0.986514 0.117809
350 2 0.339861 0.171726 0.280071
311 2 0.572358 0.105774 0.134284
122 1 0.668562 0.175432 0.087789
51 1 0.531037 0.238486 0.189519
138 1 0.667545 0.24618 0.243504
24 1 0.639166 0.00464901 0.114176
115 1 0.594316 0.101283 0.256771
351 2 0.954267 0.178989 0.112076
64 1 0.819467 0.180266 0.0381049
86 1 0.875673 0.203408 0.206918
63 1 0.753837 0.0963684 0.187919
100 1 0.923599 0.0600213 0.207813
210 1 0.781773 0.0249863 0.0522483
266 1 0.0390444 0.235259 0.190828
111 1 0.230548 0.435 0.0172618
46 1 0.171527 0.424886 0.193027
244 1 0.121388 0.335055 0.0555584
346 2 0.133493 0.23478 0.948411
141 1 0.252802 0.548234 0.151581
359 2 0.19011 0.404487 0.323093
289 2 0.0940956 0.446394 0.977023
214 1 0.267963 0.325462 0.144987
150 1 0.389023 0.277291 0.0707715
116 1 0.374579 0.442807 0.0822468
242 1 0.484329 0.39142 0.204801
181 1 0.395159 0.269101 0.238132
127 1 0.541765 0.514507 0.0199754
71 1 0.591784 0.341104 0.106971
47 1 0.707746 0.460592 0.17229
121 1 0.555084 0.518578 0.188577
123 1 0.699789 0.426457 0.012329
20 1 0.0205631 0.416163 0.140483
333 2 0.995371 0.463426 0.25557
91 1 0.763849 0.302349 0.135195
45 1 0.845087 0.441957 0.104221
37 1 0.905858 0.293697 0.0922365
226 1 0.939157 0.35111 0.240898
19 1 0.097892 0.533784 0.0733238
101 1 0.0784229 0.674504 0.131459
107 1 0.237378 0.666385 0.0495526
152 1 0.219904 0.687305 0.197758
90 1 0.101686 0.555437 0.234402
232 1 0.367942 0.597748 0.0701683
314 2 0.428413 0.538261 0.189508
175 1 0.320643 0.783874 0.119751
2 1 0.618629 0.704535 0.187958
23 1 0.49371 0.653066 0.104059
66 1 0.642591 0.601892 0.0812286
159 1 0.734083 0.719021 0.0932001
198 1 0.941052 0.546179 0.140319
73 1 0.79617 0.605133 0.17022
252 1 0.787487 0.597662 0.0184917
183 1 0.91726 0.70341 0.0717408
34 1 0.889668 0.715092 0.216323
151 1 0.112723 0.96537 0.0223083
296 2 0.12012 0.782759 0.204054
85 1 0.0925506 0.934015 0.17295
104 1 0.164716 0.797406 0.0928047
126 1 0.236979 0.850586 0.258742
133 1 0.0391974 0.826816 0.0101641
236 1 0.233704 0.935601 0.116513
29 1 0.386004 0.886103 0.0338782
279 1 0.368644 0.896765 0.194662
117 1 0.484612 0.810935 0.132236
125 1 0.547657 0.898032 0.0120803
339 2 0.565236 0.904372 0.148709
230 1 0.677764 0.843208 0.170008
134 1 0.697123 0.854027 0.0236626
21 1 0.618706 0.954279 0.2582
261 1 -0.00924754 0.814776 0.161617
320 2 0.741748 0.936707 0.120023
288 1 0.952873 0.938599 0.111053
254 1 0.839918 0.833638 0.106241
321 2 0.971746 0.949626 0.239147
118 1 0.0569796 0.0368462 0.285489
56 1 0.0213423 0.129285 0.43749
354 2 0.145096 0.0898802 0.386899
176 1 0.258205 0.136766 0.38092
235 1 0.115807 0.226367 0.365837
240 1 0.171684 0.104583 0.503232
7 1 0.429291 0.110319 0.358
26 1 0.256721 0.976775 0.494455
89 1 0.518368 0.231394 0.350043
187 1 0.352969 0.120172 0.513894
273 1 0.723374 0.0475252 0.329779
3 1 0.625778 0.149378 0.410561
322 2 0.46338 0.183698 0.479457
317 2 0.995278 0.150833 0.294461
18 1 0.75867 0.20255 0.36115
98 1 0.865652 0.0784181 0.360394
299 2 0.74176 0.0811997 0.442339
4 1 0.827845 0.176735 0.475636
275 1 0.922357 0.228456 0.361313
15 1 0.0774549 0.352876 0.297635
309 2 0.058329 0.338309 0.441676
281 1 0.160526 0.394585 0.499231
30 1 0.238615 0.268823 0.457701
243 1 0.255949 0.292269 0.303237
165 1 0.329939 0.440382 0.235907
143 1 0.306347 0.398808 0.40504
318 2 0.426417 0.366672 0.31505
253 1 0.380011 0.268583 0.389858
105 1 0.408943 0.501858 0.350211
297 2 0.40264 0.36568 0.482636
80 1 0.80531 0.325838 0.278125
308 2 0.52965 0.468657 0.323488
245 1 0.624516 0.388552 0.268957
158 1 0.660392 0.31313 0.402089
32 1 0.509849 0.369749 0.420367
142 1 0.745783 0.451692 0.353124
172 1 0.620318 0.475421 0.469578
336 2 0.714546 0.263873 0.498446
206 1 0.952466 0.301079 0.495685
149 1 0.85265 0.479275 0.244384
79 1 0.949108 0.407979 0.385292
217 1 0.819991 0.338292 0.444256
83 1 0.103597 0.497775 0.384003
334 2 0.142022 0.628633 0.341212
224 1 0.0357325 0.702335 0.279959
160 1 0.245912 0.54313 0.314733
265 1 0.0717191 0.626476 0.447093
326 2 0.165707 0.518946 0.489877
124 1 0.235306 0.620986 0.442114
291 2 0.14925 0.725491 0.494668
340 2 0.277551 0.685292 0.337784
84 1 0.341619 0.618951 0.247764
328 2 0.333293 0.514652 0.456211
178 1 0.387316 0.646074 0.399614
148 1 0.312871 0.578697 0.578114
114 1 0.4611 0.535016 0.501128
28 1 0.505537 0.641553 0.276444
298 2 0.667048 0.584606 0.205066
358 2 0.506696 0.586611 0.399449
283 1 0.622275 0.563563 0.350964
180 1 0.544346 0.706494 0.400466
227 1 0.685176 0.691528 0.42436
356 2 0.722092 0.569328 0.435115
144 1 0.842757 0.539841 0.415562
55 1 0.752819 0.623254 0.315596
186 1 0.960126 0.571854 0.309438
330 2 0.946428 0.615257 0.442375
113 1 0.870372 0.694208 0.376215
264 1 0.206978 0.00751042 0.313571
161 1 0.100674 0.972142 0.434292
87 1 0.160657 0.750283 0.354472
207 1 0.0415707 0.778893 0.430976
313 2 0.198886 0.897257 0.380346
25 1 0.0830314 0.875958 0.305772
27 1 0.473606 0.970323 0.282005
41 1 0.302824 0.795667 0.403
1 1 0.441177 0.991817 0.468879
222 1 0.381339 0.759275 0.266014
259 1 0.33668 0.938297 0.349232
220 1 0.457758 0.860367 0.383924
312 2 0.645134 0.739497 0.315222
282 1 0.538313 0.79061 0.27091
276 1 0.65066 0.859903 0.364393
38 1 0.582068 -0.00285546 0.390172
170 1 0.5638 0.868539 0.494509
221 1 0.824244 0.943007 0.230213
319 2 0.769936 0.781387 0.383182
213 1 0.920152 0.840234 0.300684
140 1 0.752286 0.763784 0.260171
234 1 0.793166 0.910882 0.385889
248 1 0.956413 0.95054 0.397737
267 1 0.890696 0.819525 0.44971
329 2 0.00575331 0.0178427 0.504932
225 1 0.0718856 0.0566027 0.745387
50 1 0.155085 0.16335 0.673089
294 2 0.247764 0.189777 0.568819
256 1 0.142216 0.982409 0.592853
204 1 0.548731 0.240031 0.550031
162 1 0.452941 0.109021 0.645475
68 1 0.262838 0.0659872 0.628053
33 1 0.320206 0.197226 0.667652
203 1 0.460656 0.221785 0.733271
349 2 0.506616 0.0238864 0.72952
154 1 0.542364 0.0834303 0.53268
353 2 0.710924 0.11844 0.693126
258 1 0.61379 0.20182 0.684066
35 1 0.696627 0.135022 0.564099
99 1 0.613525 0.0403731 0.653705
263 1 0.0314094 0.113193 0.588447
8 1 0.817474 0.167516 0.67927
81 1 0.881406 0.0404974 0.498504
324 2 0.905158 0.0752631 0.640168
65 1 0.908718 0.039336 0.761734
182 1 0.989871 0.971368 0.653354
202 1 0.778917 0.0245449 0.638433
306 2 0.864527 0.933317 0.688441
255 1 0.958381 0.177273 0.723955
278 1 0.0916318 0.240462 0.532621
190 1 0.0325267 0.483935 0.523675
163 1 0.110763 0.415513 0.741383
316 2 0.0913108 0.385533 0.598627
200 1 0.231503 0.305423 0.609544
6 1 0.057132 0.290631 0.672501
315 2 0.501445 0.302276 0.650192
76 1 0.390219 0.267093 0.551593
189 1 0.383899 0.357155 0.680813
70 1 0.305715 0.422536 0.555094
272 1 0.48988 0.395153 0.573844
31 1 0.488047 0.451015 0.74262
137 1 0.657652 0.359704 0.620809
72 1 0.593589 0.327167 0.755065
352 2 0.603299 0.349541 0.501959
260 1 0.656166 0.463641 0.730862
88 1 0.759958 0.298047 0.723026
327 2 0.933922 0.210597 0.609252
53 1 0.809127 0.288865 0.58816
119 1 0.96349 0.395661 0.608262
344 2 0.908618 0.442364 0.507026
241 1 0.794447 0.42983 0.669876
145 1 0.763125 0.45467 0.521686
17 1 0.908291 0.312024 0.721527
269 1 0.154159 0.49521 0.615704
67 1 0.0250976 0.526514 0.689018
193 1 0.163066 0.630974 0.584695
345 2 0.0388889 0.620381 0.563081
250 1 0.989732 0.671366 0.689054
280 1 0.261017 0.657361 0.72127
310 2 0.41875 0.520442 0.650438
95 1 0.302639 0.481973 0.69448
157 1 0.444774 0.649946 0.607762
300 2 0.446447 0.713177 0.486198
262 1 0.310892 0.718787 0.530581
305 2 0.550168 0.649716 0.661829
201 1 0.581708 0.630468 0.522457
270 1 0.550938 0.526479 0.630912
48 1 0.698628 0.573977 0.597436
155 1 0.646796 0.630905 0.734702
108 1 0.66039 0.726518 0.628187
341 2 0.769362 0.564411 0.709014
177 1 0.803113 0.659179 0.512898
188 1 0.947865 0.703655 0.543712
179 1 0.835373 0.680495 0.664414
131 1 0.898679 0.561452 0.574804
128 1 0.0856668 0.767556 0.631085
277 1 0.175729 0.854677 0.503663
78 1 0.984636 0.892523 0.533895
301 2 0.0750759 0.885797 0.61699
303 2 0.379886 0.0259667 0.588328
74 1 0.400816 0.780921 0.676483
171 1 0.235723 0.792467 0.639217
257 1 0.373693 0.856189 0.52118
293 2 0.249621 0.912369 0.609074
239 1 0.342191 0.916462 0.707958
40 1 0.478349 0.955771 0.606698
247 1 0.683414 0.979462 0.512624
120 1 0.528348 0.773966 0.595813
135 1 0.621567 0.882935 0.632008
191 1 0.729314 0.806295 0.499397
284 1 0.499671 0.885593 0.731886
347 2 0.828274 0.782503 0.567987
112 1 0.762086 0.843403 0.677188
147 1 0.920301 0.815571 0.65199
43 1 0.838259 0.913022 0.550923
60 1 0.244692 0.133027 0.793609
302 2 0.0599509 0.0670513 0.989936
44 1 0.113149 0.980779 0.864953
54 1 0.135286 0.232049 0.822505
92 1 0.0242331 0.214526 0.00509702
228 1 0.168686 0.122185 0.919996
285 1 0.382124 0.0722462 0.803259
208 1 0.241819 0.257297 0.986597
10 1 0.481553 0.138222 0.88798
197 1 0.34483 0.253357 0.828262
75 1 0.326543 0.133179 0.943959
168 1 0.560319 0.0737713 0.0100769
164 1 0.538609 0.222187 0.0169393
94 1 0.705435 0.122162 0.955616
286 1 0.60957 0.0987695 0.796105
169 1 0.740524 0.198699 0.82287
139 1 0.76375 0.0411239 0.789783
231 1 0.937072 0.083637 0.024806
173 1 0.872859 0.169775 0.889364
246 1 0.0204264 0.124682 0.879646
215 1 0.834708 0.0120628 0.911755
106 1 0.1468 0.361788 0.905047
62 1 0.020641 0.459599 0.87143
93 1 0.223531 0.326286 0.76088
156 1 0.262746 0.450591 0.832342
58 1 0.42634 0.47032 0.900599
331 2 0.427603 0.245702 0.947844
205 1 0.477159 0.324012 0.840392
12 1 0.342261 0.34852 0.944636
357 2 0.363398 0.36956 0.806465
13 1 0.59635 0.224895 0.863993
5 1 0.49571 0.367035 0.988941
323 2 0.594161 0.347017 0.915025
146 1 0.67457 0.283368 0.995875
223 1 0.716079 0.381171 0.861066
337 2 0.97086 0.422762 0.735754
332 2 0.835648 0.28489 0.830299
97 1 0.854912 0.481847 0.958271
287 1 0.98227 0.383345 0.983375
184 1 0.881723 0.414251 0.831318
167 1 0.979393 0.286911 0.86027
237 1 0.831385 0.330407 0.961409
59 1 0.145115 0.558203 0.935044
274 1 0.155711 0.558551 0.77893
16 1 0.251967 0.676676 0.868276
103 1 0.0969185 0.697076 0.943991
109 1 0.0151575 0.634051 0.83615
325 2 0.955248 0.698124 0.944675
212 1 0.139434 0.722005 0.766464
110 1 0.429146 0.745078 0.0103112
307 2 0.392689 0.653168 0.72061
233 1 0.284656 0.546924 0.955104
209 1 0.362157 0.566157 0.817063
348 2 0.345582 0.67069 0.9405
199 1 0.501974 0.596168 0.778723
238 1 0.407242 0.728711 0.838449
211 1 0.582079 0.739941 1.00438
36 1 0.572063 0.466909 0.879013
102 1 0.661872 0.615298 0.910711
96 1 0.472506 0.617381 0.92761
338 2 0.56097 0.691741 0.865114
82 1 0.747482 0.751869 0.922669
130 1 0.975564 0.569991 0.982134
166 1 0.891399 0.542964 0.744368
251 1 0.759527 0.533272 0.832891
42 1 0.900278 0.754186 0.795601
342 2 0.918087 0.525708 0.868132
292 2 0.743428 0.672428 0.828515
11 1 0.864056 0.644348 0.883337
290 2 0.0218263 0.768195 0.754968
129 1 0.979835 0.955838 0.949914
219 1 0.0928285 0.887028 0.735242
77 1 0.165481 0.843666 0.943522
196 1 0.421072 0.0152736 0.956306
249 1 0.210815 0.992442 0.739566
153 1 0.238331 0.841202 0.799567
61 1 0.295441 0.789423 0.958968
271 1 0.267015 0.980368 0.91255
52 1 0.402377 0.872595 0.86401
229 1 0.539095 0.983748 0.866186
14 1 0.674967 0.769965 0.771622
195 1 0.655101 0.930708 0.781794
22 1 0.550376 0.833801 0.869177
9 1 0.673276 0.974992 0.938976
39 1 0.530602 0.73307 0.754879
304 2 0.669931 0.852571 0.886871
343 2 0.863246 0.934394 0.0183257
192 1 0.92932 0.904061 0.814932
216 1 0.788958 0.874628 0.837056
57 1 0.90288 0.827785 0.949697
174 1 0.0302792 0.81422 0.863135
ITEM: TIMESTEP
100000
ITEM: NUMBER OF ATOMS
360
ITEM: BOX BOUNDS pp pp pp
0.0000000000000000e+00 6.6943295008216896e+00
0.0000000000000000e+00 6.6943295008216896e+00
0.0000000000000000e+00 6.6943295008216896e+00
ITEM: ATOMS id type xs ys zs
266 1 0.144837 0.203673 0.235349
331 2 0.168802 0.106749 0.138415
151 1 0.232527 0.224721 0.0653458
52 1 0.2647 0.015611 0.0907504
288 1 0.0292864 0.08335 0.205023
244 1 0.0661714 0.139865 0.0574789
217 1 0.284678 0.138122 0.201804
29 1 0.359884 0.00290748 0.204585
164 1 0.372251 0.127012 0.0653629
23 1 0.516595 0.235901 0.106797
339 2 0.414711 0.156984 0.188605
293 2 0.523836 0.118076 0.055013
117 1 0.545943 0.11233 0.18066
7 1 0.688515 0.151791 0.11998
88 1 0.796297 0.218593 0.226818
135 1 0.609922 0.165296 0.979695
179 1 0.711263 0.260294 0.945613
255 1 0.916577 0.0622142 0.0493898
122 1 0.887173 0.0878333 0.224839
356 2 0.839725 0.139688 0.121903
37 1 0.959315 0.224263 0.183473
231 1 0.937398 0.220565 0.035839
94 1 0.764201 0.11876 0.999718
313 2 0.243252 0.271738 0.191095
59 1 0.0500908 0.321291 0.0336341
106 1 0.174155 0.354376 0.123308
173 1 0.0580875 0.472667 0.0756171
314 2 0.175913 0.47728 0.0344924
352 2 0.102682 0.247487 0.121431
208 1 0.0256072 0.361382 0.184986
80 1 0.106169 0.48471 0.232237
150 1 0.35808 0.285867 0.157741
323 2 0.29246 0.345038 0.0387055
111 1 0.275546 0.464345 0.118961
199 1 0.420504 0.357027 0.0344337
296 2 0.492161 0.337812 0.208332
152 1 0.412693 0.433769 0.172104
360 2 0.645276 0.254859 0.0491205
24 1 0.563222 0.402381 0.110283
71 1 0.657289 0.297866 0.167642
5 1 0.703411 0.374131 0.0392161
123 1 0.5546 0.316657 0.966732
223 1 0.79919 0.252173 0.0778782
318 2 0.743029 0.486506 0.0228089
73 1 0.79586 0.380467 0.176269
287 1 0.897951 0.363395 0.081199
20 1 0.195361 0.602344 0.130706
226 1 0.054425 0.621874 0.176242
210 1 0.292902 0.752241 0.121273
295 2 0.135947 0.725014 0.129241
14 1 0.280065 0.592721 0.0104206
280 1 0.351429 0.604425 0.139563
181 1 0.427947 0.517685 0.042588
232 1 0.466992 0.694343 0.0575058
278 1 0.438222 0.747173 0.221695
242 1 0.614722 0.565881 0.07856
319 2 0.700655 0.608596 0.188194
32 1 0.613211 0.719551 0.0301848
105 1 0.493985 0.570569 0.188982
89 1 0.672592 0.479116 0.205417
55 1 0.594466 0.696439 0.179916
142 1 0.783028 0.551225 0.12591
248 1 0.908533 0.685256 0.152074
177 1 0.751058 0.69986 0.0982475
211 1 0.941348 0.485056 0.16593
312 2 0.855775 0.618214 0.0497646
158 1 0.825932 0.501362 0.268727
222 1 0.0932044 0.991415 0.101337
224 1 0.156787 0.794131 0.235457
84 1 0.11864 0.842945 0.0784589
85 1 0.0858238 0.927112 0.247005
358 2 0.20607 0.908902 0.139284
25 1 1.00441 0.797858 0.17279
243 1 0.206908 1.00351 0.236745
90 1 0.425648 0.847532 0.046207
196 1 0.476614 0.989036 0.0914369
161 1 0.30281 0.863069 0.209581
355 2 0.351852 0.926613 0.105491
27 1 0.46571 0.913867 0.24393
254 1 0.279808 0.868786 0.0214082
230 1 0.655428 0.0288342 0.0443796
141 1 0.549785 0.833008 0.133059
121 1 0.616528 0.975141 0.167863
125 1 0.718197 0.858233 0.0885825
351 2 0.696915 0.765451 0.205473
21 1 0.76452 -0.0144045 0.153673
63 1 0.823388 0.952836 1.00527
2 1 0.87265 0.811506 0.0698972
140 1 0.932693 0.949065 0.186837
201 1 0.825135 0.83332 0.221976
134 1 0.0264591 0.722494 0.038144
317 2 0.11506 0.177225 0.36028
118 1 0.109231 0.045075 0.351201
253 1 0.166066 0.154996 0.480106
56 1 0.0135685 0.216242 0.476783
132 1 0.201276 0.273057 0.35442
126 1 0.186248 0.981496 0.514559
128 1 0.0452339 0.0521358 0.49295
264 1 0.558751 0.989818 0.351071
49 1 0.273228 0.108864 0.351725
33 1 0.336172 0.245214 0.294873
40 1 0.445753 0.0809334 0.295374
236 1 0.311408 0.23056 0.456136
359 2 0.438661 0.256482 0.39309
300 2 0.281607 0.966977 0.58663
136 1 0.497579 0.226389 0.269193
176 1 0.671597 0.075382 0.263534
1 1 0.684332 0.0438613 0.423009
191 1 0.440987 0.0147801 0.444827
343 2 0.625286 0.219769 0.260107
91 1 0.528778 0.145307 0.411567
86 1 0.956017 0.138675 0.348082
43 1 0.807065 0.103104 0.348189
4 1 0.820764 0.250537 0.379449
78 1 0.892431 0.0916201 0.477284
346 2 0.138106 0.329673 0.242565
100 1 0.0154927 0.271467 0.32405
321 2 0.221304 0.46112 0.354796
189 1 0.110334 0.406946 0.356282
214 1 0.419232 0.370777 0.306247
3 1 0.423597 0.372473 0.471363
143 1 0.256943 0.385798 0.260746
340 2 0.317887 0.345473 0.384325
200 1 0.228138 0.382757 0.467032
160 1 0.489167 0.522659 0.495887
261 1 0.343759 0.479912 0.372678
47 1 0.709616 0.338905 0.313697
68 1 0.549549 0.316409 0.406483
268 1 0.572366 0.405549 0.269933
202 1 0.67137 0.198254 0.380282
204 1 0.625786 0.450614 0.417557
98 1 0.977769 0.463004 0.325639
18 1 0.894792 0.339447 0.266389
138 1 0.821597 0.415192 0.399808
338 2 0.708016 0.470103 0.327324
137 1 0.885387 0.30688 0.496581
275 1 0.0741988 0.537147 0.429285
277 1 0.117035 0.634323 0.312034
281 1 0.117151 0.676664 0.474207
269 1 0.215926 0.571421 0.40632
104 1 0.262748 0.683746 0.26016
15 1 0.250619 0.535769 0.260681
28 1 0.393422 0.628109 0.306903
310 2 0.350542 0.582469 0.439172
178 1 0.448072 0.658909 0.457662
193 1 0.289863 0.714133 0.455697
172 1 0.526508 0.684223 0.325408
245 1 0.493445 0.518202 0.348119
282 1 0.63981 0.588103 0.298432
188 1 0.598606 0.617798 0.451023
330 2 0.669328 0.763302 0.502778
183 1 0.954435 0.61262 0.285502
309 2 0.0272421 0.715385 0.269402
45 1 0.908712 0.546669 0.44753
258 1 0.753117 0.561108 0.416372
157 1 0.813939 0.70346 0.451725
290 2 0.849709 0.63149 0.358012
265 1 0.976357 0.687783 0.422817
227 1 0.782846 0.684049 0.254245
336 2 0.212579 0.775263 0.360879
345 2 0.0749984 0.933569 0.412825
235 1 0.059989 0.804137 0.37099
267 1 0.186489 0.830988 0.474312
115 1 0.980635 0.985335 0.363144
301 2 0.059449 0.808786 0.495046
279 1 0.338769 0.789428 0.333829
218 1 0.195191 0.923849 0.365214
30 1 0.348735 0.964103 0.340733
153 1 0.332197 0.918289 0.485246
220 1 0.459905 0.853491 0.381977
113 1 0.697217 0.901142 0.267053
109 1 0.577526 0.811658 0.291911
273 1 0.658794 0.879985 0.409966
216 1 0.684889 0.733163 0.374648