ITEM: TIMESTEP
0
ITEM: NUMBER OF ATOMS
360
ITEM: BOX BOUNDS pp pp pp
0.0000000000000000e+00 6.6943295008216896e+00
0.0000000000000000e+00 6.6943295008216896e+00
0.0000000000000000e+00 6.6943295008216896e+00
ITEM: ATOMS id type xs ys zs
30 1 0.176677 0.106742 0.18966
136 1 0.195416 0.0205183 0.0419875
117 1 0.0655563 0.131971 0.125911
244 1 0.174815 0.187016 0.0610366
259 1 0.412223 0.218392 0.0483118
50 1 0.313708 0.116288 0.106646
162 1 0.452012 0.0882161 0.0606587
250 1 0.311158 0.0318363 0.193371
122 1 0.533673 0.162811 0.145143
12 1 0.579858 0.11139 0.0182768
16 1 0.631129 0.0301241 0.159387
64 1 0.615944 0.247149 0.108867
196 1 0.730838 0.0787754 0.0385641
71 1 0.757095 0.194767 0.124175
173 1 0.918461 0.234682 0.0582881
271 1 0.943756 0.115115 0.214234
303 2 0.860331 0.0541894 0.0392185
161 1 0.815875 0.0757615 0.190707
100 1 0.119307 0.416733 0.104841
58 1 0.194351 0.472252 0.241751
176 1 0.146128 0.255368 0.206336
142 1 0.052934 0.273137 0.0636174
130 1 0.0467469 0.370526 0.208027
5 1 0.258134 0.405161 0.0860222
298 2 0.48024 0.321538 0.249214
45 1 0.43133 0.450371 0.100419
203 1 0.345022 0.252758 0.15982
40 1 0.306439 0.490532 0.189003
2 1 0.491008 0.298647 0.144007
348 2 0.697919 0.321729 0.0440546
186 1 0.548626 0.423336 0.167301
18 1 0.667615 0.36875 0.140521
146 1 0.641791 0.256091 0.238672
20 1 0.705974 0.434676 0.000336812
103 1 0.810028 0.416262 0.142383
92 1 0.995193 0.418514 0.00238981
266 1 0.948112 0.424017 0.128878
98 1 0.927195 0.279034 0.208487
115 1 0.772846 0.295689 0.233087
319 2 0.889471 0.409254 0.0213499
214 1 0.205437 0.517391 0.0700187
25 1 0.176755 0.627368 0.195571
36 1 0.136217 0.673569 0.0671641
34 1 0.042712 0.525145 0.0983836
290 2 0.24865 0.723403 0.0288763
356 2 0.00307259 0.636545 0.00623578
1 1 0.0406782 0.641035 0.193575
310 2 0.200661 0.722986 0.145406
297 2 0.408805 0.552665 0.171337
150 1 0.33026 0.591346 0.0905066
107 1 0.497548 0.734852 0.0393913
21 1 0.423768 0.655931 0.193117
308 2 0.288668 0.617359 0.218158
90 1 0.306105 0.737129 0.142167
174 1 0.741628 0.561239 0.0761641
289 2 0.583458 0.512179 0.03475
13 1 0.704504 0.647662 0.161309
335 2 0.636797 0.74475 0.208904
113 1 0.508069 0.577063 0.107166
14 1 0.866138 0.665951 0.170148
42 1 0.763738 0.685773 0.0420381
337 2 0.96064 0.519686 0.215878
280 1 0.866014 0.545175 0.0031176
219 1 0.0894591 0.988365 0.169237
281 1 0.0426354 0.770353 0.102074
22 1 0.0460552 0.787585 0.249032
283 1 0.0363521 0.947666 0.0562
220 1 0.186863 0.884157 0.147139
231 1 0.318246 0.963343 0.0497
291 2 0.306599 0.868095 0.207459
238 1 0.453586 0.86884 0.187295
295 2 0.488229 0.982494 0.194899
197 1 0.406306 0.825775 0.0732353
164 1 0.280054 0.848623 0.00146562
254 1 0.479775 0.93312 0.0557331
132 1 0.647084 0.765925 0.0299018
188 1 0.733181 0.817612 0.19084
195 1 0.586431 0.872271 0.147455
88 1 0.676885 0.965798 0.047753
229 1 0.88782 0.955727 0.107516
131 1 0.908898 0.796594 0.0343061
309 2 0.893537 0.772152 0.139513
261 1 0.854091 0.81021 0.238181
275 1 0.779688 0.807518 0.0748257
224 1 0.973782 0.883874 0.158692
328 2 0.913072 0.969546 0.212783
69 1 0.756526 0.938399 0.142511
306 2 0.0434159 0.103545 0.258274
350 2 0.230727 0.179575 0.27216
7 1 0.0720011 0.0143924 0.318728
304 2 0.161924 0.0822905 0.340575
140 1 0.0346227 0.245657 0.289862
97 1 0.122042 0.217438 0.386091
63 1 0.116566 0.0131589 0.436528
352 2 0.263255 0.026821 0.326601
127 1 0.360448 0.115843 0.429756
85 1 0.391285 0.114657 0.290422
46 1 0.428956 0.249304 0.445279
124 1 0.518399 0.161385 0.431789
145 1 0.512165 0.027975 0.456631
114 1 0.712593 0.0580541 0.477337
276 1 0.553235 0.132297 0.315555
330 2 0.617063 0.214217 0.439227
133 1 0.715289 0.0373654 0.279846
194 1 0.810062 0.166044 0.281068
87 1 0.763064 0.1757 0.412141
149 1 0.848434 0.095658 0.474266
177 1 0.946841 0.245111 0.417271
73 1 0.981964 0.121355 0.350441
332 2 0.863029 0.044151 0.290403
336 2 0.959651 0.124082 0.462105
104 1 0.219391 0.294995 0.299881
253 1 0.143505 0.431061 0.494739
227 1 0.123162 0.378065 0.331593
317 2 0.066157 0.382079 0.435071
153 1 0.483864 0.446402 0.306717
218 1 0.252588 0.326007 0.430428
110 1 0.288889 0.442331 0.314324
178 1 0.454563 0.4251 0.460415
344 2 0.378964 0.459956 0.368118
166 1 0.259194 0.492558 0.455043
38 1 0.382889 0.268818 0.322097
185 1 0.54384 0.266318 0.334388
236 1 0.749327 0.403702 0.32071
326 2 0.522035 0.334165 0.429183
217 1 0.687159 0.300361 0.41514
126 1 0.660684 0.424093 0.453971
247 1 0.611463 0.377504 0.325709
191 1 0.904611 0.340976 0.32083
134 1 0.865107 0.483961 0.284357
208 1 0.994503 0.443903 0.331589
242 1 0.949216 0.373598 0.458988
264 1 0.824338 0.362347 0.444834
333 2 0.829668 0.276484 0.356016
237 1 0.223785 0.582893 0.300909
3 1 0.133574 0.545153 0.43326
157 1 0.187804 0.709116 0.469605
240 1 0.119683 0.64515 0.337707
243 1 0.00822456 0.552338 0.425949
288 1 0.0695707 0.536296 0.267842
111 1 0.393497 0.55462 0.324311
235 1 0.268006 0.703544 0.287374
327 2 0.374855 0.720802 0.33044
325 2 0.394463 0.503228 0.477895
28 1 0.431028 0.607402 0.448281
273 1 0.268146 0.635338 0.420764
198 1 0.654101 0.585654 0.264285
320 2 0.60579 0.514454 0.371235
245 1 0.511569 0.674866 0.321599
152 1 0.520529 0.523347 0.48588
354 2 0.713818 0.63951 0.442868
60 1 0.588399 0.662007 0.417505
193 1 0.71054 0.677909 0.32911
155 1 0.505268 0.723938 0.485949
347 2 0.89996 0.696532 0.292853
160 1 0.773833 0.56505 0.369473
359 2 0.872918 0.522009 0.39738
141 1 0.917777 0.642816 0.420287
234 1 0.951133 0.583795 0.313534
171 1 0.833707 0.563404 0.494795
338 2 0.169557 0.770742 0.354348
339 2 0.1354 0.90793 0.283564
278 1 0.0106722 0.885651 0.467161
95 1 0.033278 0.757677 0.39042
269 1 0.151738 0.876028 0.449805
257 1 0.426043 0.986283 0.325176
282 1 0.314599 0.918637 0.304919
246 1 0.293143 0.987336 0.416973
39 1 0.357513 0.842439 0.410389
213 1 0.536667 0.802514 0.261169
48 1 0.536003 0.844407 0.389912
169 1 0.652289 0.808948 0.336688
10 1 0.560298 0.951854 0.280789
226 1 0.637218 0.964675 0.394928
241 1 0.738403 0.901588 0.287349
175 1 0.686917 0.782486 0.464562
99 1 0.709397 0.922206 0.489243
222 1 0.964053 0.877471 0.306099
286 1 0.817138 0.97634 0.393986
147 1 0.912428 0.760992 0.385715
158 1 0.831565 0.751845 0.47608
74 1 0.971195 0.993672 0.425096
143 1 0.888224 0.878043 0.440039
23 1 0.23025 0.166598 0.524546
263 1 0.241161 0.14227 0.656778
260 1 0.15766 0.0466778 0.608398
53 1 0.175993 0.0557495 0.74828
301 2 0.0196457 0.111274 0.673498
35 1 0.100338 0.156609 0.532237
228 1 0.0477124 0.229603 0.644866
267 1 0.477465 0.0710499 0.589161
204 1 0.381499 0.0962493 0.694384
9 1 0.415175 0.19362 0.585039
358 2 0.313442 0.0581141 0.573425
168 1 0.398559 0.224534 0.737966
15 1 0.612162 0.00543182 0.565005
26 1 0.531625 0.0107261 0.703118
76 1 0.507347 0.218305 0.675529
232 1 0.570038 0.158339 0.570842
137 1 0.711494 0.238643 0.533207
144 1 0.727487 0.140112 0.611173
357 2 0.645406 0.229325 0.646955
138 1 0.99143 0.10246 0.555791
51 1 0.753568 0.233576 0.718268
116 1 0.886774 0.148889 0.60368
77 1 0.998739 0.00566246 0.722502
300 2 0.865535 0.248402 0.69162
285 1 0.861369 0.0935178 0.740639
120 1 0.0878964 0.304969 0.54349
202 1 0.180398 0.287063 0.712391
318 2 0.190531 0.364934 0.593961
209 1 0.0118673 0.474997 0.539128
55 1 0.132598 0.442642 0.672086
255 1 0.00646181 0.334264 0.724638
19 1 0.00250095 0.462989 0.684045
83 1 0.332876 0.354406 0.661765
163 1 0.471307 0.35985 0.584808
165 1 0.330145 0.310915 0.532626
190 1 0.435083 0.42308 0.700466
313 2 0.458614 0.489884 0.598038
56 1 0.337498 0.482894 0.557971
79 1 0.274413 0.461052 0.735971
287 1 0.579048 0.323189 0.51203
312 2 0.588213 0.324004 0.657336
105 1 0.573688 0.452341 0.662609
322 2 0.604876 0.464556 0.544957
316 2 0.688847 0.358388 0.549868
307 2 0.714853 0.373914 0.7245
268 1 0.925171 0.294193 0.596833
284 1 0.770761 0.46562 0.666985
67 1 0.86104 0.440701 0.540509
321 2 0.905024 0.429257 0.642254
32 1 0.872379 0.366714 0.749521
272 1 0.782322 0.339121 0.639691
44 1 0.0659729 0.597536 0.5614
101 1 0.209091 0.520587 0.613532
81 1 0.217025 0.613113 0.71784
179 1 0.113204 0.677026 0.647229
212 1 0.356734 0.558897 0.655751
343 2 0.351584 0.607734 0.550625
125 1 0.421584 0.690025 0.704212
274 1 0.287269 0.689305 0.598672
75 1 0.51709 0.592415 0.598283
172 1 0.698201 0.542646 0.543837
277 1 0.633483 0.675776 0.54011
331 2 0.658146 0.603777 0.689981
106 1 0.573866 0.72829 0.645477
66 1 0.558531 0.630252 0.748138
292 2 0.702903 0.729538 0.696848
159 1 0.948568 0.704909 0.55135
345 2 0.868504 0.704489 0.65043
102 1 0.940061 0.593615 0.656865
11 1 0.780686 0.635322 0.594207
207 1 0.97074 0.723027 0.681619
108 1 0.236582 0.758003 0.725679
262 1 0.221001 0.937705 0.562429
57 1 0.0917146 0.769771 0.742884
180 1 0.0654313 0.947678 0.60766
170 1 0.0492376 0.80036 0.601438
65 1 0.134648 0.938339 0.722895
192 1 0.395688 0.972416 0.517266
182 1 0.324522 0.976895 0.675318
6 1 0.468109 0.930003 0.612333
323 2 0.428488 0.753891 0.605555
61 1 0.354629 0.848485 0.618127
148 1 0.251147 0.815503 0.53454
4 1 0.47006 0.823301 0.702317
346 2 0.558302 0.843906 0.661947
135 1 0.5598 0.853982 0.543313
78 1 0.665785 0.889914 0.636368
47 1 0.729463 0.788608 0.596282
33 1 0.85797 0.989795 0.570765
8 1 0.858452 0.805231 0.718601
340 2 0.764656 0.956741 0.64769
360 2 0.771862 0.975617 0.742904
351 2 0.917481 0.841918 0.553979
211 1 0.877991 0.949676 0.697766
68 1 0.978517 0.851416 0.707739
112 1 0.0392985 0.242897 0.907697
167 1 0.103109 0.0548157 0.866503
187 1 0.0171436 0.0705351 0.998217
215 1 0.16983 0.154146 0.937375
279 1 0.188788 0.165981 0.805597
329 2 0.0891942 0.171769 0.850427
24 1 0.425531 0.0218053 0.844774
123 1 0.277278 0.211225 0.996427
302 2 0.444102 0.10833 0.951167
156 1 0.329123 0.126246 0.841869
86 1 0.322237 0.0491017 0.953197
221 1 0.524807 0.235615 0.975708
311 2 0.562062 0.125172 0.912644
52 1 0.64455 0.192624 0.938502
129 1 0.602872 0.0496132 0.835938
96 1 0.695643 0.0844282 0.75653
239 1 0.512967 0.160867 0.807299
305 2 0.664856 0.0683611 0.933133
183 1 0.937945 0.0904937 0.857353
299 2 0.815694 0.143449 0.836075
128 1 0.894362 0.193505 0.788227
200 1 0.81913 0.140967 0.952377
252 1 0.111839 0.463255 0.957235
265 1 0.238925 0.402424 0.937957
296 2 0.111158 0.356685 0.876782
94 1 0.206915 0.283406 0.913258
248 1 0.0970802 0.431404 0.793332
223 1 0.408298 0.356233 0.970995
84 1 0.366074 0.492544 0.991346
119 1 0.324383 0.311876 0.862641
118 1 0.466642 0.493818 0.925298
80 1 0.597295 0.444655 0.912162
314 2 0.65027 0.317459 0.9136
72 1 0.505196 0.37218 0.852907
206 1 0.633637 0.41969 0.791293
49 1 0.57113 0.284175 0.777443
62 1 0.778638 0.251418 0.864357
181 1 0.941162 0.333297 0.893348
199 1 0.919745 0.450434 0.851051
154 1 0.772567 0.416669 0.84069
355 2 0.156222 0.605965 0.96744
349 2 0.018751 0.682512 0.791494
54 1 0.174669 0.533808 0.85808
256 1 0.112327 0.67104 0.843658
293 2 0.38683 0.584877 0.927926
270 1 0.343691 0.647059 0.808576
205 1 0.278402 0.640853 0.917186
342 2 0.359283 0.521156 0.852603
109 1 0.487588 0.749738 0.912852
324 2 0.281972 0.565263 0.995088
201 1 0.381364 0.680394 0.986069
70 1 0.440012 0.558954 0.790774
139 1 0.498649 0.613045 0.933005
29 1 0.632498 0.595934 0.970964
82 1 0.648808 0.555849 0.834388
37 1 0.734086 0.666964 0.787267
210 1 0.741381 0.741026 0.921503
341 2 0.584751 0.645605 0.876319
216 1 0.998627 0.550267 0.796983
315 2 0.84154 0.519982 0.753104
41 1 0.756283 0.562301 0.919304
184 1 0.887558 0.704261 0.823071
121 1 0.883665 0.67435 0.9668
233 1 0.111849 0.758154 0.957535
230 1 0.183755 0.925886 0.90024
334 2 0.114135 0.859738 0.86524
91 1 0.222377 0.776395 0.881723
294 2 0.0434465 0.965987 0.817306
249 1 0.382325 0.89676 0.938518
93 1 0.293048 0.97967 0.819818
17 1 0.332637 0.851413 0.761439
151 1 0.569718 0.987307 0.950633
258 1 0.686181 0.915858 0.772509
353 2 0.53975 0.753702 0.768586
251 1 0.634261 0.776867 0.827158
27 1 0.615823 0.86196 0.941635
189 1 0.70883 0.933897 0.899776
31 1 0.508399 0.896613 0.848307
89 1 0.811149 0.912954 0.992558
225 1 0.801855 0.822535 0.850705
43 1 0.928898 0.917188 0.929329
59 1 0.981702 0.793537 0.870595
ITEM: TIMESTEP
10000
ITEM: NUMBER OF ATOMS
360
ITEM: BOX BOUNDS pp pp pp
0.0000000000000000e+00 6.6943295008216896e+00
0.0000000000000000e+00 6.6943295008216896e+00
0.0000000000000000e+00 6.6943295008216896e+00
ITEM: ATOMS id type xs ys zs
117 1 0.0789374 0.159673 0.171627
249 1 0.243249 0.0727021 0.0631683
296 2 0.247136 0.0090375 0.218944
305 2 0.00014456 0.202009 0.0602315
275 1 0.104553 0.0227218 0.117946
244 1 0.10435 0.161097 0.00659112
5 1 0.291386 0.226884 0.18052
162 1 0.357029 0.0700974 0.187288
161 1 0.489769 0.02711 0.0863627
203 1 0.333321 0.198288 0.0506985
12 1 0.457376 0.180657 0.119931
310 2 0.36455 0.0766934 0.0620769
69 1 0.593321 0.115431 0.141872
335 2 0.686428 0.0405542 0.0814193
185 1 0.734726 0.0973355 0.211923
64 1 0.660818 0.239385 0.185279
146 1 0.753599 0.168808 0.0834544
271 1 0.896037 0.0776755 0.207107
98 1 0.887553 0.231481 0.127787
43 1 0.970963 0.0770347 0.0641213
73 1 0.82116 0.00788128 0.0904386
115 1 0.804151 0.238742 0.243115
100 1 0.0266804 0.310416 0.130986
265 1 0.10273 0.350544 0.244578
130 1 0.179999 0.257192 0.0821175
242 1 0.119829 0.437606 0.124216
214 1 0.249339 0.366007 0.162626
58 1 0.4105 0.33312 0.212629
297 2 0.318721 0.449113 0.196482
166 1 0.39283 0.464665 0.0908712
94 1 0.446002 0.307066 0.0489657
118 1 0.613524 0.264812 0.03657
298 2 0.528922 0.313185 0.147052
80 1 0.740942 0.437282 0.137221
110 1 0.517924 0.474151 0.191579
289 2 0.664375 0.378874 0.0271604
2 1 0.631565 0.380493 0.233635
123 1 0.552364 0.431796 0.0465291
317 2 0.988623 0.415557 0.198479
18 1 0.860885 0.369898 0.200677
71 1 0.755732 0.313948 0.048365
173 1 0.904965 0.317064 0.00253234
288 1 0.997603 0.431256 0.0158247
319 2 0.780798 0.445188 0.0211416
112 1 0.108325 0.596826 0.12872
34 1 0.227075 0.507702 0.242954
339 2 0.049427 0.719707 0.128283
252 1 0.0849265 0.696838 0.00715101
324 2 0.235694 0.610484 0.150439
257 1 0.179727 0.732338 0.106198
233 1 0.247644 0.50206 0.0826414
222 1 0.0178285 0.650404 0.236499
248 1 0.224379 0.62009 0.00624384
92 1 0.00304101 0.573587 0.0026069
197 1 0.364124 0.580996 0.235135
150 1 0.355947 0.600998 0.0914098
113 1 0.489324 0.702063 0.178182
21 1 0.370088 0.729029 0.0247789
29 1 0.691909 0.522794 0.00165982
107 1 0.5138 0.588248 0.0694392
60 1 0.638657 0.665576 0.14797
236 1 0.668782 0.542556 0.24029
308 2 0.545683 0.599629 0.221453
314 2 0.615164 0.530519 0.109526
266 1 0.889816 0.506423 0.0788792
191 1 0.914364 0.526303 0.22702
337 2 0.997308 0.53489 0.124688
13 1 0.774612 0.588586 0.150781
224 1 0.929529 0.648649 0.123392
198 1 0.787233 0.748791 0.147649
320 2 0.901304 0.688373 0.239625
35 1 0.220386 0.92726 0.142978
231 1 0.0824471 0.877328 0.0811474
42 1 0.0484914 0.807068 0.221306
25 1 0.202153 0.800757 0.237417
261 1 0.00688925 0.964403 0.216489
302 2 0.248872 0.867259 0.0402848
151 1 0.350736 0.958951 0.0738807
122 1 0.47331 0.829767 0.0822217
22 1 0.326377 0.810659 0.138137
213 1 0.436241 0.91324 0.19973
311 2 0.584881 0.916324 0.0933953
10 1 0.621137 0.982644 0.205999
169 1 0.61853 0.802013 0.0495315
188 1 0.726294 0.880414 0.139161
276 1 0.573393 0.832247 0.190464
334 2 0.829039 0.838467 0.0253341
27 1 0.928376 0.930549 0.0219312
283 1 0.88633 0.860903 0.190257
131 1 0.95946 0.795085 0.0855621
176 1 0.202755 0.202664 0.289673
140 1 0.0730307 0.0953814 0.298853
330 2 0.062763 0.0475215 0.419695
227 1 0.138845 0.132874 0.441879
268 1 0.292681 0.196295 0.40236
350 2 0.260064 0.0695904 0.467436
23 1 0.405819 0.159097 0.303124
127 1 0.411067 0.0997735 0.439288
192 1 0.281358 0.049132 0.33341
259 1 0.516501 0.237096 0.252459
38 1 0.513195 0.0682006 0.254997
318 2 0.540621 0.245375 0.420434
196 1 0.654605 0.23136 0.342785
352 2 0.620128 0.122375 0.274764
124 1 0.550175 0.132843 0.384753
33 1 0.738385 0.098172 0.350544
104 1 0.6757 0.168408 0.472237
250 1 0.602052 0.00257248 0.365761
299 2 0.629033 0.063626 0.463171
246 1 0.982018 0.128008 0.469561
194 1 0.975899 0.22777 0.262024
133 1 0.883245 0.152841 0.346148
219 1 0.944953 0.00972475 0.360615
63 1 0.825391 0.149405 0.492482
301 2 0.923057 0.0159582 0.479573
120 1 0.116042 0.449013 0.390082
300 2 0.188915 0.382161 0.31615
240 1 0.211621 0.303563 0.461271
309 2 0.0478648 0.359864 0.437297
55 1 0.0970096 0.26781 0.379697
218 1 0.419045 0.260899 0.429208
208 1 0.326239 0.328781 0.333348
111 1 0.406404 0.463838 0.3053
237 1 0.258655 0.440684 0.403976
46 1 0.435439 0.415233 0.444339
45 1 0.522298 0.363335 0.334367
333 2 0.569808 0.427646 0.441356
3 1 0.691049 0.378726 0.398178
326 2 0.801942 0.492114 0.259035
87 1 0.954881 0.272229 0.446082
332 2 0.750662 0.353233 0.288377
76 1 0.786967 0.267524 0.441196
97 1 0.982076 0.369228 0.330903
217 1 0.833418 0.416807 0.361449
336 2 0.883326 0.293098 0.352891
234 1 0.96545 0.454382 0.473003
345 2 0.964196 0.496584 0.338695
193 1 0.0672048 0.507169 0.259321
187 1 0.178531 0.659881 0.258253
220 1 0.169153 0.585855 0.408705
157 1 0.0807736 0.726628 0.482158
338 2 0.0995566 0.692612 0.341126
149 1 0.0179722 0.595055 0.415866
164 1 0.3435 0.732698 0.271602
291 2 0.250112 0.735791 0.350489
90 1 0.29333 0.611993 0.356654
238 1 0.453106 0.654571 0.340989
344 2 0.381846 0.5449 0.404609
327 2 0.360785 0.727477 0.415027
277 1 0.377431 0.633774 0.48709
245 1 0.564488 0.519763 0.33306
175 1 0.509247 0.695667 0.484572
152 1 0.60106 0.677831 0.31391
264 1 0.70053 0.531455 0.411054
212 1 0.502006 0.533128 0.493074
28 1 0.683753 0.685635 0.444682
354 2 0.581503 0.608256 0.43616
103 1 0.777084 0.652505 0.322688
177 1 0.873156 0.560588 0.386772
171 1 0.837161 0.653537 0.484661
180 1 0.188779 0.979222 0.427065
1 1 0.140465 0.799785 0.376062
136 1 0.153669 0.942693 0.289552
170 1 0.0454705 0.899323 0.380821
30 1 0.31195 0.907004 0.281826
85 1 0.420718 0.981214 0.355351
48 1 0.435216 0.817865 0.347897
241 1 0.494289 0.842832 0.492105
267 1 0.331456 0.948565 0.482719
282 1 0.278917 0.835347 0.414808
134 1 0.700571 0.773349 0.256092
359 2 0.52696 0.946082 0.285536
114 1 0.699738 0.912854 0.298214
78 1 0.592264 0.838238 0.381623
258 1 0.642408 0.941596 0.490185
141 1 0.980588 0.75786 0.353163
158 1 0.756478 0.834423 0.4528
286 1 0.824245 0.965329 0.292168
74 1 0.845978 0.806252 0.330411
306 2 0.947142 0.887038 0.306558
207 1 0.88699 0.895601 0.451281
226 1 0.777224 0.997437 0.473733
351 2 0.896106 0.759375 0.481169
138 1 0.0893862 0.226306 0.558575
116 1 0.159272 0.0421827 0.576691
53 1 0.157415 0.14998 0.682056
285 1 0.00638553 0.0892984 0.629128
165 1 0.24657 0.166627 0.541201
215 1 0.210711 0.0120074 0.741385
356 2 0.264641 0.108456 0.665955
358 2 0.384836 0.201603 0.546868
145 1 0.466713 0.175124 0.687563
15 1 0.370667 0.0779038 0.61885
304 2 0.48608 0.0804694 0.603623
260 1 0.325783 0.222356 0.654572
155 1 0.470605 0.0127823 0.740333
135 1 0.50131 0.00419053 0.500372
279 1 0.510592 0.182569 0.538222
232 1 0.60833 0.0790309 0.585291
189 1 0.748554 0.0727071 0.603046
137 1 0.630683 0.225106 0.623601
168 1 0.593464 0.0942797 0.731671
278 1 0.874052 0.12161 0.693083
202 1 0.93622 0.230923 0.604173
144 1 0.795395 0.221999 0.624631
88 1 0.7819 0.0116397 0.730767
235 1 0.16791 0.432365 0.544995
209 1 0.0152081 0.364131 0.57638
83 1 0.203556 0.296474 0.608596
243 1 0.0746986 0.295515 0.694206
81 1 0.0642037 0.441669 0.72533
178 1 0.210092 0.430117 0.674098
253 1 0.342962 0.375306 0.708623
101 1 0.335787 0.312393 0.523413
39 1 0.367197 0.466373 0.58738
206 1 0.467039 0.306097 0.611491
126 1 0.629516 0.467661 0.546743
9 1 0.57251 0.319303 0.522583
163 1 0.518712 0.491211 0.641769
284 1 0.608597 0.373107 0.661052
51 1 0.720798 0.338363 0.556629
62 1 0.734984 0.316655 0.720397
272 1 0.833963 0.481284 0.51712
342 2 0.93986 0.43194 0.644635
228 1 0.869091 0.33896 0.537764
181 1 0.893229 0.34663 0.710625
95 1 0.780286 0.437967 0.655238
347 2 0.136595 0.582849 0.548035
148 1 0.243713 0.724636 0.504324
273 1 0.140668 0.579272 0.666446
91 1 0.0902121 0.746897 0.637911
147 1 0.0414073 0.518061 0.582932
36 1 0.25588 0.530151 0.514839
343 2 0.258494 0.635687 0.590789
179 1 0.296896 0.5569 0.674452
125 1 0.434297 0.61672 0.650165
341 2 0.48202 0.692521 0.747971
316 2 0.412504 0.508221 0.705778
61 1 0.268243 0.731668 0.666051
307 2 0.674384 0.529317 0.658678
172 1 0.746047 0.616498 0.593616
11 1 0.676381 0.709321 0.683065
6 1 0.59505 0.623413 0.578891
47 1 0.524957 0.743151 0.643521
184 1 0.563049 0.605617 0.728191
325 2 0.937791 0.559629 0.514389
321 2 0.853254 0.682738 0.627457
160 1 0.760408 0.575774 0.73552
128 1 0.902018 0.551335 0.648103
67 1 0.806251 0.719631 0.734212
269 1 0.968676 0.673959 0.562753
210 1 0.962766 0.703547 0.713854
263 1 0.00128295 0.957241 0.682336
7 1 0.133872 0.865631 0.520508
211 1 0.13602 0.903236 0.679625
262 1 0.0190658 0.96143 0.507253
323 2 0.257587 0.980246 0.590132
99 1 0.423482 0.905543 0.60758
108 1 0.274535 0.863289 0.589607
201 1 0.396807 0.78563 0.709824
274 1 0.387371 0.764313 0.546281
293 2 0.481269 0.865618 0.700713
17 1 0.338601 0.926794 0.735405
357 2 0.648182 0.974716 0.739813
96 1 0.578471 0.909947 0.637559
143 1 0.642671 0.792691 0.549589
329 2 0.731472 0.818068 0.691641
251 1 0.729198 0.915249 0.609436
102 1 0.781659 0.758691 0.583244
65 1 0.968654 0.831211 0.574412
8 1 0.862569 0.991832 0.594024
139 1 0.865959 0.873427 0.702642
167 1 0.0711427 0.0556631 0.77712
156 1 0.118584 0.183892 0.862017
119 1 0.211616 0.0591947 0.883657
50 1 0.228812 0.208866 0.945159
225 1 0.0430209 0.0201997 0.959834
129 1 0.467903 0.190379 0.943475
93 1 0.33925 0.105183 0.930693
26 1 0.393994 0.239997 0.79383
312 2 0.287663 0.177346 0.84221
322 2 0.43535 0.130587 0.84708
182 1 0.342908 0.091131 0.760421
295 2 0.336821 0.00211313 0.847541
31 1 0.629397 0.0840405 0.98493
200 1 0.713001 0.184057 0.759471
204 1 0.503688 0.0430747 0.871295
221 1 0.730912 0.210784 0.945437
20 1 0.60439 0.18205 0.875901
89 1 0.70477 0.0516543 0.844396
340 2 0.830338 0.227892 0.7574
77 1 0.976193 0.205475 0.760918
52 1 0.834516 0.128696 0.857558
360 2 0.753636 0.0704659 0.971642
328 2 0.849888 0.173215 0.99807
183 1 0.934548 0.0205042 0.798378
142 1 0.96453 0.193564 0.928214
153 1 0.244682 0.368709 0.977413
105 1 0.207175 0.266112 0.781401
255 1 0.0721404 0.322992 0.950332
331 2 0.108123 0.329408 0.822041
56 1 0.192754 0.425561 0.845583
54 1 0.0547704 0.496157 0.870447
190 1 0.362183 0.287129 0.928827
313 2 0.306211 0.363936 0.835776
223 1 0.403479 0.43041 0.93394
70 1 0.478177 0.40145 0.773826
294 2 0.289101 0.485926 0.952086
75 1 0.338805 0.482244 0.805431
72 1 0.543775 0.34103 0.902656
86 1 0.56324 0.252778 0.762064
348 2 0.617914 0.360215 0.791153
287 1 0.64453 0.4701 0.762736
154 1 0.714118 0.366492 0.89745
16 1 0.843808 0.293709 0.864254
79 1 0.983216 0.353488 0.836753
49 1 0.889987 0.449729 0.915134
199 1 0.905394 0.47795 0.77118
303 2 0.785914 0.410975 0.784007
315 2 0.152567 0.526078 0.782757
19 1 0.0279559 0.588908 0.756314
84 1 0.13304 0.510281 0.990272
355 2 0.109816 0.61236 0.910163
57 1 0.0247332 0.698439 0.868244
205 1 0.241511 0.58339 0.855582
44 1 0.157246 0.683626 0.774677
40 1 0.410295 0.578277 0.949873
290 2 0.320611 0.675511 0.935603
270 1 0.371318 0.640743 0.778933
82 1 0.378207 0.74798 0.866394
186 1 0.513516 0.732417 0.968141
174 1 0.643765 0.657915 0.964991
66 1 0.508788 0.645571 0.853138
292 2 0.653596 0.582834 0.823508
37 1 0.549551 0.514199 0.889685
41 1 0.742156 0.668267 0.853038
121 1 0.825617 0.626494 0.986241
280 1 0.778825 0.525698 0.870446
32 1 0.917244 0.599121 0.877285
349 2 0.945089 0.674581 0.968285
256 1 0.195436 0.757496 0.924619
24 1 0.177469 0.962805 0.98947
230 1 0.0373362 0.845781 0.936777
68 1 0.117387 0.937417 0.851494
59 1 0.0646301 0.812695 0.781501
4 1 0.228099 0.819621 0.780498
239 1 0.407005 0.965724 0.9493
346 2 0.402052 0.838347 0.957661
254 1 0.301716 0.878625 0.893074
195 1 0.463554 0.864649 0.835312
132 1 0.710437 0.932262 0.997204
353 2 0.616332 0.808215 0.877525
14 1 0.738723 0.762563 0.981489
247 1 0.559278 0.924463 0.975891
106 1 0.582384 0.75863 0.775043
109 1 0.624532 0.923991 0.840079
229 1 0.830076 0.953479 0.88458
159 1 0.881817 0.776693 0.939892
216 1 0.751281 0.831126 0.82279
281 1 0.940071 0.874481 0.830405
