ITEM: TIMESTEP
0
ITEM: NUMBER OF ATOMS
360
ITEM: BOX BOUNDS pp pp pp
0.0000000000000000e+00 6.6943295008216896e+00
0.0000000000000000e+00 6.6943295008216896e+00
0.0000000000000000e+00 6.6943295008216896e+00
ITEM: ATOMS id type xs ys zs
200 1 0.122555 0.087382 0.241897
273 1 0.122447 0.228486 0.162028
170 1 0.20425 0.123008 0.091673
294 2 0.0817617 0.0705241 0.102693
238 1 0.0244393 0.175108 0.0455727
255 1 0.271023 0.206431 0.202647
17 1 0.342497 0.0808716 0.186062
1 1 0.478665 0.019824 0.150774
139 1 0.4192 0.144214 0.0713909
148 1 0.281759 0.0171167 0.00731376
138 1 0.294188 0.205439 0.00985291
208 1 0.439283 0.00311973 0.0131155
156 1 0.570108 0.114787 0.0747768
52 1 0.669813 0.206645 0.148492
244 1 0.727914 0.0700986 0.0737098
285 1 0.617231 0.0555457 0.204284
338 2 0.738483 0.102748 0.212459
39 1 0.533635 0.188847 0.22435
339 2 0.781726 0.229543 0.232509
64 1 0.98974 0.120624 0.196323
260 1 0.855745 0.153935 0.12052
165 1 0.856425 0.0203858 0.205549
33 1 0.128783 0.403489 0.0746095
223 1 0.16315 0.358704 0.227431
355 2 0.0565439 0.336807 0.157043
281 1 0.139008 0.25159 0.00839283
201 1 0.0379471 0.451428 0.198519
214 1 0.263772 0.325864 0.101858
275 1 0.419895 0.273795 0.165169
131 1 0.451195 0.423337 0.0872266
157 1 0.289209 0.481577 0.111142
243 1 0.353717 0.398095 0.217591
301 2 0.394249 0.277931 0.0213376
261 1 0.559995 0.375497 0.187759
66 1 0.676332 0.420929 0.0170232
154 1 0.533171 0.260738 0.0674668
326 2 0.65098 0.330573 0.114284
323 2 0.557854 0.381413 0.0100065
70 1 0.72476 0.434716 0.16591
288 1 0.943345 0.28256 0.128747
77 1 0.779155 0.302702 0.112241
318 2 0.885603 0.3553 0.0601828
213 1 0.888302 0.450101 0.151019
129 1 0.823088 0.468573 0.0176858
71 1 0.986497 0.465877 0.024062
158 1 0.177625 0.52551 0.186512
93 1 0.0874638 0.663077 0.167453
240 1 0.107244 0.555525 0.0502278
270 1 0.0300632 0.723954 0.033265
278 1 0.18249 0.714804 0.0478319
345 2 0.378009 0.515402 0.026149
85 1 0.280051 0.64537 0.155771
258 1 0.430945 0.574653 0.12347
47 1 0.450351 0.720341 0.165333
27 1 0.291025 0.609614 0.00356853
15 1 0.542774 0.518672 0.0106056
149 1 0.579424 0.525569 0.166933
16 1 0.572031 0.656845 0.0884888
108 1 0.697046 0.566214 0.0706486
74 1 0.554088 0.637418 0.248561
297 2 0.671263 0.62509 0.184927
69 1 0.919253 0.607232 0.124389
79 1 0.797753 0.569119 0.205284
34 1 0.773663 0.715642 0.121773
151 1 0.216926 0.955757 0.180935
356 2 0.0893079 0.97856 0.183117
358 2 0.218654 0.848339 0.112047
97 1 0.0872002 0.834348 0.116289
46 1 0.198146 0.774512 0.208794
204 1 0.130261 0.976075 0.0544668
49 1 0.352405 0.928144 0.123098
271 1 0.33219 0.754139 0.048619
306 2 0.332532 0.798531 0.173854
185 1 0.463294 0.844651 0.0747404
264 1 0.447866 0.863301 0.238428
293 2 0.407445 0.983392 0.247153
172 1 0.656657 0.750102 0.199731
205 1 0.694562 0.828724 0.0489987
319 2 0.580015 0.776913 0.0682772
91 1 0.610754 0.968696 0.0316109
4 1 0.58488 0.89933 0.179781
295 2 0.699124 0.968449 0.143941
174 1 0.973278 0.994983 0.107347
164 1 0.911302 0.76532 0.166015
81 1 0.848343 0.915437 0.0685698
36 1 0.779024 0.861327 0.186851
337 2 0.895266 0.910655 0.186244
325 2 0.959192 0.842925 0.0659181
236 1 0.878124 0.773618 0.0051304
78 1 0.0881672 0.117216 0.497225
256 1 0.210779 0.157338 0.33773
322 2 0.106345 0.0485308 0.381486
106 1 0.212661 0.0424068 0.443796
310 2 0.195264 0.166035 0.472541
137 1 0.0360171 0.159872 0.348586
357 2 0.0351614 0.227621 0.469832
279 1 0.398063 0.184054 0.299229
246 1 0.327442 0.136093 0.445526
312 2 0.400327 0.0464061 0.405402
353 2 0.474255 0.202976 0.387083
231 1 0.49055 0.0507799 0.317761
228 1 0.298242 0.0234105 0.313499
183 1 0.500603 0.0833729 0.481859
21 1 0.665138 0.162645 0.299974
121 1 0.614055 0.190557 0.441345
128 1 0.665442 0.0388812 0.398878
313 2 0.74784 0.127656 0.471641
177 1 0.918745 0.126827 0.460432
95 1 0.798558 0.0976857 0.35883
280 1 0.889772 0.194249 0.274935
263 1 0.76411 0.24038 0.390306
308 2 0.931526 0.0769529 0.31829
309 2 0.146332 0.251758 0.283009
127 1 0.117314 0.294581 0.401618
35 1 0.0336886 0.414918 0.339301
328 2 0.240263 0.451969 0.258578
225 1 0.0192525 0.286991 0.263266
80 1 0.18521 0.45495 0.383258
327 2 0.155802 0.383118 0.492907
329 2 0.462322 0.35776 0.269247
99 1 0.271418 0.306174 0.325984
199 1 0.425435 0.327069 0.387927
216 1 0.328827 0.448718 0.382966
13 1 0.499146 0.453265 0.388948
265 1 0.272822 0.3169 0.470645
116 1 0.554791 0.292714 0.34297
104 1 0.618885 0.464722 0.299801
61 1 0.699049 0.311338 0.26228
153 1 0.686904 0.371526 0.414995
31 1 0.5495 0.3436 0.491649
48 1 0.880248 0.351012 0.279608
45 1 0.770074 0.452602 0.318176
195 1 0.924136 0.275902 0.408208
292 2 0.820651 0.340094 0.444446
110 1 0.90844 0.422739 0.415241
272 1 0.189501 0.639523 0.280289
111 1 0.130965 0.654935 0.41578
133 1 0.0634446 0.558658 0.31927
317 2 0.0812823 0.70456 0.309172
98 1 0.0566274 0.508335 0.458799
346 2 0.432871 0.631816 0.257172
267 1 0.468715 0.504539 0.265488
53 1 0.276537 0.602605 0.414605
191 1 0.323652 0.546905 0.272696
84 1 0.327279 0.711367 0.293631
22 1 0.423726 0.604928 0.378588
334 2 0.359456 0.533812 0.470061
211 1 0.269217 0.740689 0.477349
3 1 0.42148 0.697946 0.497844
59 1 0.662778 0.517964 0.457881
119 1 0.560967 0.631066 0.411863
134 1 0.644664 0.747407 0.383207
242 1 0.713534 0.592234 0.322904
152 1 0.950609 0.671791 0.274791
143 1 0.914167 0.523789 0.286825
321 2 0.852517 0.635285 0.334454
276 1 0.780843 0.731392 0.298403
188 1 0.812298 0.550262 0.428656
142 1 0.955187 0.615523 0.420921
266 1 0.862307 0.733117 0.43123
194 1 0.138067 0.939689 0.310267
193 1 0.0536629 0.821163 0.262366
140 1 0.175597 0.791199 0.368622
136 1 0.127984 0.907311 0.459659
41 1 0.0056856 0.770523 0.398108
354 2 0.033818 0.908583 0.37831
332 2 0.36089 0.802163 0.40202
38 1 0.414857 0.925178 0.372345
112 1 0.472977 0.753242 0.334699
20 1 0.302055 0.862563 0.287243
114 1 0.272469 0.902197 0.426459
330 2 0.48526 0.931339 0.489639
359 2 0.590701 0.989979 0.308038
43 1 0.560261 0.879021 0.356284
30 1 0.730669 0.976555 0.278288
360 2 0.662668 0.836175 0.295327
86 1 0.51235 0.815781 0.476494
102 1 0.747393 0.876518 0.391359
233 1 0.997524 0.996096 0.443639
75 1 0.806609 0.998489 0.491055
230 1 0.988286 0.975548 0.269035
130 1 0.896258 0.833248 0.307896
63 1 0.904528 0.880635 0.473023
283 1 0.863082 0.962738 0.352179
180 1 0.127568 0.143156 0.65523
277 1 0.22506 0.0485125 0.600032
352 2 0.0180197 0.0822707 0.701978
163 1 0.295325 0.201696 0.577805
343 2 0.401224 0.109695 0.549824
44 1 0.426814 0.186361 0.661596
51 1 0.40586 0.0248911 0.647218
169 1 0.28933 0.12889 0.716104
239 1 0.432595 0.24077 0.50812
315 2 0.326956 0.242869 0.743402
300 2 0.552734 0.0259537 0.612728
124 1 0.681587 0.0731514 0.561396
268 1 0.571119 0.168305 0.584872
120 1 0.727827 0.125003 0.724437
181 1 0.559561 0.116316 0.729675
76 1 0.924846 0.037665 0.59059
215 1 0.818782 0.152054 0.595738
62 1 0.975602 0.185415 0.596593
171 1 0.895972 0.153814 0.729752
146 1 0.198866 0.271127 0.718122
162 1 0.150315 0.264072 0.550854
349 2 0.0572819 0.276041 0.637306
159 1 0.0142257 0.357987 0.512565
184 1 0.187142 0.39548 0.637648
50 1 0.0448138 0.463698 0.623217
60 1 0.270812 0.462394 0.534736
161 1 0.406509 0.405477 0.522783
190 1 0.325659 0.349116 0.6493
176 1 0.498694 0.324852 0.635183
10 1 0.410119 0.486098 0.66014
83 1 0.710262 0.262775 0.533547
101 1 0.627232 0.266543 0.702877
336 2 0.524607 0.445517 0.587711
167 1 0.651466 0.383344 0.599788
286 1 0.583857 0.437851 0.728262
253 1 0.759823 0.441925 0.681263
107 1 0.794456 0.429467 0.534967
14 1 0.783437 0.285391 0.681392
147 1 0.868769 0.287597 0.551926
37 1 0.955967 0.336406 0.681261
305 2 0.905497 0.414604 0.591286
251 1 0.908047 0.492996 0.718292
296 2 0.0525528 0.641726 0.512795
226 1 0.169707 0.585863 0.542902
217 1 0.228739 0.561027 0.676079
87 1 0.0459171 0.612311 0.668946
350 2 0.136532 0.719972 0.66107
203 1 0.320825 0.621176 0.566694
186 1 0.356036 0.639322 0.723635
324 2 0.43291 0.613411 0.620657
210 1 0.477743 0.539897 0.518642
287 1 0.708336 0.667955 0.501615
23 1 0.556397 0.672831 0.566728
187 1 0.666625 0.690423 0.665065
73 1 0.616441 0.535064 0.613183
145 1 0.538492 0.618567 0.714996
289 2 0.85693 0.639628 0.521729
220 1 0.905655 0.526645 0.545448
96 1 0.76211 0.576372 0.599771
179 1 0.89892 0.633079 0.658732
304 2 0.813112 0.56702 0.731058
90 1 0.977292 0.731128 0.549008
212 1 0.816241 0.748863 0.58962
218 1 0.96954 0.746885 0.724119
182 1 0.126302 0.75279 0.539004
132 1 0.0699296 0.96669 0.588098
311 2 0.0277421 0.844286 0.513906
92 1 0.208473 0.899526 0.592359
56 1 0.0768282 0.835438 0.664216
175 1 0.139675 0.96626 0.719381
32 1 0.449408 0.758952 0.655859
259 1 0.361257 0.990835 0.511983
262 1 0.275996 0.751942 0.637528
331 2 0.396189 0.885078 0.680722
2 1 0.366208 0.843712 0.538139
237 1 0.295175 0.956963 0.729037
221 1 0.497009 0.90317 0.607331
141 1 0.593062 0.822982 0.675652
7 1 0.604833 0.93546 0.505653
26 1 0.643722 0.98394 0.713151
178 1 0.680296 0.813073 0.542731
189 1 0.735152 0.854011 0.671244
348 2 0.792497 0.886794 0.540237
126 1 0.93991 0.974725 0.730894
207 1 0.79471 0.988559 0.657339
197 1 0.9152 0.860936 0.627977
347 2 0.189894 0.0874837 0.776346
72 1 0.0600325 0.0557926 0.811783
282 1 0.153378 0.0926646 0.943227
25 1 0.0396386 0.219292 0.751055
29 1 0.0190944 0.0343668 0.958545
115 1 0.158155 0.208474 0.853789
192 1 0.27737 0.115132 0.870377
307 2 0.37659 0.109737 0.94556
269 1 0.414026 0.107077 0.814298
202 1 0.492221 0.247589 0.799838
11 1 0.499868 0.167698 0.93767
344 2 0.649225 0.111295 0.981066
54 1 0.728642 0.204862 0.986548
122 1 0.60956 0.0472334 0.882063
89 1 0.652382 0.191074 0.849821
245 1 0.87072 0.070821 0.993869
229 1 0.88512 0.22816 0.977968
19 1 0.751228 0.0861324 0.888033
9 1 0.995337 0.172182 0.892702
160 1 0.895491 0.0624918 0.852625
42 1 0.8045 0.215393 0.830368
18 1 0.077471 0.377074 0.770745
341 2 0.21578 0.345766 0.98649
206 1 0.104286 0.402382 0.917534
335 2 0.0568881 0.290241 0.869485
118 1 0.217855 0.353459 0.843488
117 1 0.211087 0.488794 0.961379
113 1 0.00204357 0.325813 0.991012
274 1 0.330197 0.401572 0.991667
257 1 0.29619 0.449131 0.751552
100 1 0.348318 0.25356 0.864115
298 2 0.344234 0.387441 0.862283
24 1 0.435721 0.386655 0.773759
55 1 0.469897 0.350391 0.925778
12 1 0.421898 0.494064 0.89437
227 1 0.712989 0.346565 0.80999
314 2 0.576467 0.334065 0.798607
135 1 0.632665 0.303202 0.946514
173 1 0.58625 0.445027 0.875894
150 1 0.789764 0.339896 0.944847
320 2 0.847875 0.341745 0.7787
209 1 0.934998 0.304718 0.850116
333 2 0.898085 0.395412 0.935809
224 1 0.97804 0.457138 0.854627
144 1 0.816933 0.454657 0.834275
340 2 0.0457277 0.510492 0.752223
316 2 0.0747459 0.541185 0.919536
234 1 0.163931 0.522886 0.801891
222 1 0.199496 0.681176 0.773604
254 1 0.153504 0.644766 0.916878
58 1 0.0374952 0.616395 0.818161
249 1 0.461381 0.681451 0.996575
40 1 0.299361 0.574285 0.847954
351 2 0.487461 0.51652 0.78805
232 1 0.428327 0.659498 0.851536
103 1 0.286765 0.728597 0.901416
68 1 0.6765 0.694145 0.982286
109 1 0.648494 0.720351 0.823626
219 1 0.689691 0.558825 0.767356
198 1 0.714707 0.535554 0.922386
241 1 0.577493 0.611255 0.895926
248 1 0.819678 0.636644 0.97859
67 1 0.993005 0.745847 0.8904
342 2 0.763609 0.657025 0.861115
82 1 0.783448 0.718728 0.757912
284 1 0.969761 0.601839 0.954001
303 2 0.860716 0.544899 0.901474
5 1 0.892745 0.62222 0.819353
105 1 0.194434 0.977782 0.85195
290 2 0.140938 0.781231 0.901514
57 1 0.19201 0.833551 0.761409
252 1 0.0440452 0.875883 0.977817
28 1 0.214159 0.850354 0.976977
8 1 0.0333136 0.872814 0.811515
299 2 0.342452 0.898526 0.999267
235 1 0.339158 0.801509 0.760743
291 2 0.283476 0.859329 0.872641
166 1 0.495873 0.946839 0.755333
88 1 0.365496 0.954128 0.872621
168 1 0.41019 0.803036 0.922187
123 1 0.508567 0.788123 0.793056
94 1 0.517798 0.931939 0.90631
125 1 0.563068 0.78973 0.943004
155 1 0.637345 0.879043 0.830643
247 1 0.872362 0.848252 0.78179
302 2 0.874801 0.75344 0.869767
6 1 0.777227 0.962611 0.807019
65 1 0.756078 0.953239 0.96108
196 1 0.76107 0.80475 0.898942
250 1 0.915744 0.919912 0.906304
ITEM: TIMESTEP
60000
ITEM: NUMBER OF ATOMS
360
ITEM: BOX BOUNDS pp pp pp
0.0000000000000000e+00 6.6943295008216896e+00
0.0000000000000000e+00 6.6943295008216896e+00
0.0000000000000000e+00 6.6943295008216896e+00
ITEM: ATOMS id type xs ys zs
233 1 0.138182 0.0816779 0.140698
165 1 0.00172954 0.0501623 0.226203
356 2 0.259927 0.138748 0.0863186
295 2 0.994866 0.0435316 0.096871
64 1 0.0972085 0.213302 0.255998
282 1 0.437256 0.102547 0.0623793
261 1 0.304669 0.170596 0.975095
106 1 0.341771 0.201108 0.156555
148 1 0.301571 0.00937188 0.00603087
345 2 0.480908 0.191922 0.148493
228 1 0.336914 0.0534341 0.168701
139 1 0.57956 0.197191 0.228702
38 1 0.610817 0.0269894 0.112319
208 1 0.5775 0.173338 0.066765
1 1 0.728942 0.131957 0.134544
312 2 0.695225 0.12827 0.254902
293 2 0.677404 0.0959621 0.0211345
74 1 0.703567 0.229127 0.99816
48 1 1.00351 0.173387 0.131362
342 2 0.741299 0.975633 0.0834568
21 1 0.880995 0.12244 0.212236
236 1 0.849636 0.04838 0.0638163
91 1 0.857202 0.212326 0.0646296
260 1 0.169724 0.233906 0.116647
243 1 0.1917 0.396511 0.160883
318 2 0.0432619 0.453827 0.10818
232 1 0.211853 0.530422 0.0758235
255 1 0.269794 0.298015 0.250266
206 1 0.288964 0.310129 0.0492652
329 2 0.377266 0.323255 0.170361
11 1 0.440145 0.255857 0.0439762
131 1 0.343626 0.45565 0.115503
104 1 0.504194 0.331395 0.160049
275 1 0.284952 0.504637 0.243259
154 1 0.659976 0.312968 0.146133
242 1 0.574177 0.437343 0.231087
66 1 0.574807 0.340942 0.0246105
129 1 0.652702 0.465863 0.0711635
15 1 0.498506 0.471607 0.105649
213 1 0.782584 0.352456 0.0810559
195 1 0.0282206 0.326021 0.133289
69 1 0.87473 0.291021 0.184818
338 2 0.912978 0.322795 0.0559236
240 1 0.900942 0.457811 0.125537
45 1 0.770497 0.40506 0.227039
355 2 0.899793 0.387286 0.265574
223 1 0.106951 0.542378 0.182296
258 1 0.143251 0.669465 0.0888347
114 1 0.0214528 0.686519 0.184558
349 2 0.111504 0.513542 0.984867
58 1 0.020295 0.576084 0.0585214
119 1 0.42319 0.546762 0.204477
157 1 0.316719 0.64588 0.127913
16 1 0.470614 0.62792 0.0892221
85 1 0.446072 0.713025 0.20729
105 1 0.283997 0.71678 0.00568779
346 2 0.584219 0.587939 0.0439732
196 1 0.586468 0.594309 0.184641
205 1 0.704783 0.639648 0.0325575
125 1 0.602649 0.740396 0.148212
142 1 0.74492 0.548613 0.171015
27 1 0.866874 0.665258 0.24323
201 1 0.875399 0.619344 0.100984
328 2 0.952233 0.556933 0.199004
130 1 0.738149 0.710265 0.178514
151 1 0.142489 0.825605 0.0697463
245 1 0.0815473 0.944209 0.154407
49 1 0.22704 0.944439 0.142592
306 2 0.0248034 0.826018 0.137129
140 1 0.126769 0.800224 0.221718
238 1 0.150999 0.975951 0.0114086
3 1 0.288681 0.777193 0.178066
8 1 0.313853 0.856844 0.0589661
168 1 0.458296 0.799911 0.0534212
358 2 0.328521 0.895461 0.192359
185 1 0.435696 0.955188 0.084891
94 1 0.503361 0.873737 0.200395
319 2 0.630765 0.901946 0.169411
285 1 0.739996 0.859687 0.136406
303 2 0.684138 0.792128 0.0388378
109 1 0.591391 0.88414 0.0518091
81 1 0.922351 0.933274 0.148688
158 1 0.893979 0.790096 0.106894
52 1 0.797604 0.991352 0.201156
164 1 0.977699 0.810114 0.257096
170 1 0.993847 0.945912 -0.000421668
137 1 0.227588 0.143538 0.26298
277 1 0.110034 0.0773146 0.337483
253 1 0.0722937 0.221673 0.405622
183 1 0.215962 0.152665 0.424026
308 2 0.0771358 0.113482 0.477658
322 2 0.199852 0.239139 0.345809
354 2 0.257568 0.01774 0.255536
17 1 0.421345 0.253719 0.271962
202 1 0.365458 0.102014 0.317744
279 1 0.480756 0.0639867 0.215006
246 1 0.447838 0.168007 0.458489
330 2 0.334113 0.10001 0.448581
51 1 0.523615 0.0712435 0.366966
116 1 0.670305 0.16833 0.379178
39 1 0.748838 0.235755 0.257368
83 1 0.600252 0.155135 0.526177
95 1 0.960397 0.119711 0.357866
61 1 0.79789 0.0820217 0.329463
124 1 0.946969 0.119282 0.497586
309 2 0.863472 0.200742 0.323191
31 1 0.813198 0.192408 0.434248
280 1 0.786169 0.0670301 0.519519
33 1 0.00146763 0.449396 0.243516
225 1 0.121192 0.347383 0.332474
127 1 0.118051 0.445523 0.459434
305 2 0.0521523 0.344112 0.466179
99 1 0.177421 0.297784 0.489613
53 1 0.159563 0.504756 0.324644
121 1 0.329404 0.248054 0.387873
138 1 0.261589 0.383444 0.374467
267 1 0.404951 0.413872 0.270539
199 1 0.417368 0.364202 0.415626
23 1 0.385894 0.506586 0.402302
216 1 0.539996 0.444156 0.377118
313 2 0.513524 0.343472 0.28344
239 1 0.534569 0.264992 0.385849
13 1 0.656305 0.352724 0.336449
339 2 0.592855 0.3696 0.469921
43 1 0.718389 0.441167 0.452276
147 1 0.944777 0.283629 0.461855
288 1 0.957269 0.288512 0.313296
77 1 0.816286 0.33226 0.36918
35 1 0.980578 0.430677 0.389154
304 2 0.84543 0.476206 0.415612
271 1 0.179936 0.651468 0.251676
272 1 0.0110043 0.611551 0.321506
60 1 0.123366 0.618859 0.449596
317 2 0.135116 0.73654 0.508217
80 1 0.24782 0.541264 0.444368
211 1 0.228693 0.762607 0.385433
22 1 0.343424 0.636848 0.31729
336 2 0.305313 0.676251 0.4351
86 1 0.4408 0.664945 0.431863
324 2 0.506155 0.550138 0.441236
4 1 0.656205 0.667866 0.300772
84 1 0.511859 0.589896 0.322933
188 1 0.682648 0.503307 0.313645
172 1 0.633945 0.582146 0.444122
332 2 0.568678 0.703961 0.435158
178 1 0.688961 0.685954 0.518409
133 1 0.872967 0.516593 0.294138
111 1 0.948698 0.562161 0.44548
59 1 0.782986 0.584517 0.41218
360 2 0.768672 0.600333 0.281283
41 1 0.908511 0.710888 0.388927
221 1 0.768612 0.744708 0.383175
152 1 0.076924 0.747104 0.370325
97 1 0.0737811 0.921365 0.30603
92 1 0.170784 0.889514 0.433524
193 1 0.0356187 0.997192 0.433265
136 1 0.264464 0.00643164 0.38057
262 1 0.240902 0.884227 0.2897
231 1 0.348154 0.860677 0.452698
20 1 0.389682 0.792668 0.320513
28 1 0.387806 0.949612 0.281255
112 1 0.490517 0.814525 0.451639
264 1 0.426781 0.986079 0.464547
47 1 0.662427 0.0120702 0.268254
75 1 0.661507 0.0273195 0.440119
128 1 0.540031 0.769213 0.313419
194 1 0.541632 0.923286 0.337407
36 1 0.673062 0.819166 0.279112
268 1 0.647322 0.815343 0.44564
102 1 0.822872 0.826939 0.268988
300 2 0.864797 0.0531299 0.431024
174 1 0.902546 0.95233 0.323902
30 1 0.757393 0.925423 0.37165
283 1 0.975355 0.839229 0.431569
177 1 0.188352 0.152045 0.570802
159 1 0.0593658 0.0778789 0.603935
347 2 0.1682 0.0113314 0.629441
132 1 0.114731 0.170948 0.727249
215 1 0.0496389 0.24055 0.566918
175 1 0.17279 0.0131039 0.507307
180 1 0.332235 0.0811085 0.577048
348 2 0.416545 0.172912 0.596716
14 1 0.49304 0.0469789 0.611378
256 1 0.315071 0.23504 0.528666
269 1 0.395016 0.12012 0.73335
335 2 0.277902 0.182578 0.663838
120 1 0.241882 0.0709017 0.698414
353 2 0.752506 0.185378 0.561454
259 1 0.650071 0.0270779 0.595725
250 1 0.745616 0.11465 0.679761
181 1 0.598835 0.0512476 0.742478
89 1 0.523812 0.201488 0.661114
153 1 0.895257 0.233111 0.5975
207 1 0.869039 0.194963 0.739241
76 1 0.897787 0.0752485 0.643201
289 2 0.992124 0.168877 0.652442
229 1 0.002395 0.270893 0.73304
203 1 0.10982 0.409874 0.606254
78 1 0.183069 0.281479 0.637898
234 1 0.0337827 0.428637 0.736471
162 1 0.254755 0.386864 0.709852
265 1 0.269926 0.413044 0.544712
163 1 0.361592 0.281575 0.664884
62 1 0.400508 0.458577 0.650474
326 2 0.40004 0.363047 0.566742
351 2 0.285741 0.514331 0.638599
107 1 0.677271 0.280123 0.486029
190 1 0.491329 0.449424 0.532187
10 1 0.512549 0.355448 0.686195
343 2 0.617769 0.258858 0.605866
176 1 0.503725 0.296028 0.531772
70 1 0.635505 0.387408 0.600377
161 1 0.560742 0.500816 0.693797
143 1 0.810434 0.345278 0.521204
110 1 0.763818 0.430895 0.670469
327 2 0.948688 0.346816 0.647421
263 1 0.773454 0.276789 0.663681
96 1 0.963128 0.424376 0.542273
37 1 0.900799 0.483915 0.677366
98 1 0.0459156 0.554291 0.56756
217 1 0.15873 0.541414 0.680893
296 2 0.168356 0.507635 0.553247
87 1 0.104488 0.735734 0.655862
12 1 0.0119447 0.596831 0.730691
241 1 0.259898 0.7385 0.702192
182 1 0.229261 0.631277 0.567605
266 1 1.00545 0.69439 0.513154
186 1 0.36845 0.550396 0.546099
210 1 0.356402 0.719115 0.550198
235 1 0.343932 0.614024 0.691619
334 2 0.450163 0.572112 0.646447
73 1 0.692784 0.54189 0.585399
251 1 0.658339 0.703964 0.678689
141 1 0.537479 0.609224 0.560765
292 2 0.753041 0.672252 0.763528
145 1 0.521973 0.645588 0.736125
219 1 0.692053 0.557427 0.754334
220 1 0.830974 0.507078 0.542185
134 1 0.837421 0.664627 0.531931
302 2 0.931094 0.582649 0.609315
287 1 0.813253 0.61696 0.666819
230 1 0.950944 0.713529 0.66416
291 2 0.0278514 0.809202 0.701305
357 2 0.935329 0.986734 0.733776
197 1 0.128613 0.893413 0.669827
218 1 0.232231 0.802858 0.546791
56 1 0.0667717 0.855551 0.540965
350 2 0.00604463 0.961991 0.598844
2 1 0.40015 0.961101 0.706391
187 1 0.413703 0.748898 0.713883
237 1 0.268373 0.9397 0.635766
226 1 0.42988 0.886794 0.579489
298 2 0.334317 0.831048 0.646211
337 2 0.72063 0.942244 0.527891
321 2 0.684589 0.956334 0.702911
26 1 0.577883 0.91654 0.527511
6 1 0.570791 0.909665 0.690693
189 1 0.691245 0.846947 0.608728
248 1 0.540205 0.765237 0.593058
82 1 0.683755 0.82377 0.752742
5 1 0.812291 0.827805 0.515817
46 1 0.935673 0.880183 0.664406
7 1 0.908929 0.962477 0.512761
311 2 0.930681 0.796601 0.55234
19 1 0.798659 0.955551 0.626883
63 1 0.809294 0.776585 0.680487
273 1 0.129601 0.133351 0.998731
310 2 0.179554 0.977246 0.883323
126 1 0.197199 0.104734 0.856386
25 1 0.041906 0.193991 0.868271
247 1 0.0587014 0.03944 0.881561
72 1 0.97307 0.0928472 0.769648
204 1 0.110304 0.0153575 0.739866
352 2 0.407291 0.0642637 0.942979
200 1 0.325673 0.0226457 0.844708
340 2 0.360255 0.179706 0.848193
44 1 0.479734 0.170078 0.91901
192 1 0.467101 0.0266731 0.836861
122 1 0.544523 0.0213768 0.979754
101 1 0.64897 0.225535 0.728719
314 2 0.52115 0.143034 0.793558
149 1 0.633908 0.120918 0.902333
42 1 0.59547 0.269648 0.867044
171 1 0.735088 0.00974842 0.831259
320 2 0.735282 0.150914 0.824589
160 1 0.97434 0.128512 0.99407
344 2 0.834268 0.0533318 0.767749
244 1 0.788169 0.105435 0.950383
18 1 0.890274 0.216768 0.897815
29 1 0.910233 -0.00238707 0.883271
40 1 0.132641 0.39293 0.0288692
184 1 0.132516 0.303258 0.801367
113 1 0.182017 0.273781 0.937933
341 2 0.24785 0.369383 0.84579
71 1 0.996288 0.35497 0.863679
281 1 0.108553 0.452294 0.872943
100 1 0.273116 0.225667 0.779854
214 1 0.346461 0.30076 0.909957
118 1 0.261762 0.429094 0.959977
135 1 0.432508 0.417362 0.967432
115 1 0.442225 0.257282 0.797258
146 1 0.389165 0.394219 0.797492
315 2 0.490452 0.311343 0.914157
167 1 0.650461 0.385354 0.761936
144 1 0.703398 0.377184 0.940722
323 2 0.561365 0.45345 0.986529
286 1 0.554929 0.44002 0.864584
284 1 0.988563 0.444807 0.988176
9 1 0.0359441 0.272816 0.995768
209 1 0.874091 0.349975 0.769086
54 1 0.775537 0.445009 0.830872
227 1 0.756123 0.271489 0.820142
179 1 0.865048 0.361463 0.944691
50 1 0.925737 0.497861 0.836472
150 1 0.801854 0.492673 0.993411
103 1 0.0128102 0.75635 0.0190968
257 1 0.16596 0.65188 0.799896
254 1 0.0440095 0.587146 0.898586
191 1 0.206369 0.576356 0.924711
117 1 0.0218335 0.740496 0.827719
274 1 0.359391 0.570562 0.985408
173 1 0.270841 0.514726 0.801143
55 1 0.438484 0.537981 0.805884
316 2 0.36234 0.477125 0.88616
24 1 0.345072 0.642208 0.856167
301 2 0.418858 0.697496 0.979621
249 1 0.502481 0.71607 0.87003
68 1 0.570289 0.711465 0.000154406
333 2 0.565057 0.561817 0.814211
108 1 0.518219 0.57221 0.947497
198 1 0.658314 0.535338 0.923631
224 1 0.647106 0.68662 0.849795
34 1 0.896797 0.671187 0.944878
67 1 0.887764 0.66391 0.795203
212 1 0.787206 0.595483 0.873699
325 2 0.827734 0.534396 0.764735
297 2 0.939391 0.556685 0.960101
299 2 0.210444 0.943646 0.753732
252 1 0.139394 0.727825 0.934733
90 1 0.15734 0.816001 0.792063
270 1 0.0948024 0.866716 0.906538
57 1 0.0101236 0.904597 0.790603
32 1 0.324092 0.865445 0.781889
290 2 0.257567 0.74082 0.836742
169 1 0.245007 0.886073 0.918127
88 1 0.420833 0.933349 0.943509
123 1 0.366952 0.789445 0.903999
166 1 0.478116 0.846212 0.812057
331 2 0.537802 0.833722 0.93625
156 1 0.690926 0.977186 0.968462
359 2 0.559234 0.770279 0.751801
155 1 0.594663 0.938374 0.852851
276 1 0.668191 0.828927 0.914493
65 1 0.835014 0.911112 0.00054627
93 1 0.795547 0.761979 0.998246
278 1 0.792816 0.762198 0.848747
222 1 0.830527 0.897808 0.767091
294 2 0.902796 0.791083 0.770528
79 1 0.935895 0.828052 0.909191
307 2 0.769528 0.902568 0.88176
ITEM: TIMESTEP
120000
ITEM: NUMBER OF ATOMS
360
ITEM: BOX BOUNDS pp pp pp
0.0000000000000000e+00 6.6943295008216896e+00
0.0000000000000000e+00 6.6943295008216896e+00
0.0000000000000000e+00 6.6943295008216896e+00
ITEM: ATOMS id type xs ys zs
214 1 0.157193 0.16075 0.0738759
99 1 0.153259 0.200395 0.238664
151 1 0.157288 0.0404693 0.163408
351 2 0.120956 0.153654 0.950633
329 2 0.212179 0.318672 0.201645
159 1 0.285163 0.122241 0.154977
260 1 0.432772 0.15256 0.226751
17 1 0.401742 0.180787 0.0624916
228 1 0.364732 0.0158032 0.245809
11 1 0.41494 0.232367 0.922593
154 1 0.584248 0.145629 0.135324
1 1 0.739289 0.210487 0.0990037
139 1 0.476913 0.0434832 0.10268
208 1 0.773493 0.193897 0.266794
156 1 0.659675 0.0585952 1.00886
185 1 0.722973 0.0745515 0.162076
165 1 0.0188199 0.117528 0.208701
236 1 0.876086 0.135927 0.145574
285 1 0.853941 0.0236026 0.23653
289 2 0.830807 -0.00186814 0.11339
295 2 0.0592398 0.242321 0.124166
131 1 0.189653 0.31528 0.0648433
223 1 0.200791 0.467152 0.176722
40 1 0.029782 0.375992 0.132474
113 1 0.108555 0.440187 0.00045971
322 2 0.492684 0.236454 0.152733
258 1 0.294231 0.427344 0.0420857
66 1 0.440714 0.336741 0.0836803
267 1 0.320341 0.277192 0.158295
13 1 0.364756 0.43128 0.182539
297 2 0.324468 0.299959 0.0320045
239 1 0.522679 0.313776 0.249426
188 1 0.700999 0.383366 0.0598386
45 1 0.582129 0.287144 0.0801497
312 2 0.667044 0.230231 0.200159
73 1 0.651083 0.373743 0.210689
205 1 0.55594 0.454152 0.043667
309 2 0.878631 0.261341 0.227567
48 1 0.0129859 0.26023 0.24216
345 2 0.802103 0.301242 0.0385739
39 1 0.788466 0.330968 0.186496
133 1 0.92477 0.27339 0.103896
243 1 0.913892 0.403898 0.233632
33 1 0.869098 0.415723 0.0799504
293 2 0.777109 0.467796 0.189173
274 1 0.0775668 0.540768 0.12646
114 1 0.191672 0.667583 0.0912971
201 1 0.0345564 0.691634 0.109725
272 1 0.156043 0.598933 0.244524
301 2 0.41386 0.470649 0.0749793
119 1 0.483513 0.590249 0.0453457
157 1 0.31381 0.575568 0.115766
22 1 0.270737 0.714012 0.231287
59 1 0.531238 0.459317 0.187883
196 1 0.499833 0.691392 0.255088
77 1 0.659243 0.534772 0.124615
331 2 0.503018 0.748754 0.0599963
57 1 0.591938 0.69406 0.126005
328 2 -0.00914439 0.472631 0.0617629
150 1 0.803859 0.553211 0.0910333
27 1 0.934632 0.538577 0.165632
29 1 0.882137 0.682775 0.179624
212 1 0.746232 0.698087 0.0978499
273 1 0.920048 0.586105 0.0169424
164 1 0.13646 0.790191 0.170134
306 2 0.252195 0.971572 0.211897
233 1 0.184078 0.906287 0.0583485
270 1 0.0230712 0.859602 0.0890773
61 1 0.0451309 0.928915 0.221275
290 2 0.123396 0.786197 0.0454235
238 1 0.0827294 0.0107686 0.0264604
97 1 0.309358 0.992152 0.0788848
103 1 0.271756 0.79429 0.043925
105 1 0.395878 0.73955 0.137689
245 1 0.300901 0.868243 0.203119
279 1 0.438693 0.906367 0.132002
200 1 0.424578 0.823833 1.00108
356 2 0.586067 0.936363 0.0906401
168 1 0.58416 0.844625 0.170657
276 1 0.717413 0.93204 0.0739753
318 2 0.70803 0.827613 0.13533
130 1 0.706384 0.90815 0.22487
122 1 0.593445 1.0107 0.201501
100 1 0.963038 0.0064163 0.113558
342 2 0.926026 0.915538 0.204957
158 1 0.841175 0.838998 0.150823
81 1 0.878886 0.912944 0.0248213
93 1 0.903448 0.748908 0.0386671
137 1 0.221576 0.0696968 0.313536
347 2 0.103528 0.0352806 0.284075
175 1 0.20245 0.161984 0.427839
299 2 0.103727 0.147111 0.498408
357 2 0.243919 0.0128106 0.427095
193 1 0.100749 0.0346147 0.431349
253 1 0.0524148 0.163102 0.373935
256 1 0.296373 0.218033 0.311458
246 1 0.354643 0.0789811 0.397063
262 1 0.498854 0.0419353 0.327633
202 1 0.456997 0.184411 0.372063
335 2 0.335543 0.231526 0.439541
47 1 0.59075 0.174515 0.306323
250 1 0.602505 0.200402 0.451854
28 1 0.680162 0.0569138 0.314409
350 2 0.583245 0.0801484 0.405895
264 1 0.699005 0.0698927 0.483205
38 1 0.98165 0.0210744 0.334754
51 1 0.771249 0.198905 0.42949
353 2 0.828368 0.096831 0.507535
288 1 0.905274 0.176323 0.333359
124 1 0.959658 0.0721122 0.469647
52 1 0.831387 0.0455163 0.39163
21 1 0.113194 0.363974 0.281511
348 2 0.143125 0.268525 0.354218
132 1 0.0925133 0.271886 0.489811
354 2 0.208583 0.509282 0.322561
95 1 0.151088 0.432 0.416769
111 1 0.00289105 0.481573 0.452333
255 1 0.27516 0.389419 0.293643
324 2 0.394882 0.316805 0.263052
216 1 0.383533 0.338978 0.387583
138 1 0.460334 0.444392 0.321423
296 2 0.412022 0.459498 0.427897
116 1 0.535672 0.33983 0.410587
69 1 0.68196 0.298126 0.350093
339 2 0.591987 0.421903 0.321749
220 1 0.666105 0.43452 0.427281
107 1 0.933807 0.223371 0.472191
64 1 0.991213 0.343418 0.38201
35 1 0.757914 0.431553 0.314144
195 1 0.847423 0.319379 0.353334
96 1 0.87161 0.427249 0.452573
304 2 0.9601 0.344198 0.505934
53 1 0.0449124 0.492118 0.307622
41 1 0.00555291 0.638001 0.263127
275 1 0.123603 0.59868 0.401038
341 2 0.997166 0.588984 0.380907
283 1 0.000914671 0.710461 0.39817
242 1 0.434033 0.575856 0.190679
23 1 0.303886 0.556289 0.263183
85 1 0.260886 0.662048 0.375072
86 1 0.408618 0.595366 0.36405
186 1 0.288979 0.507644 0.44261
298 2 0.29165 0.675359 0.57408
4 1 0.382457 0.769954 0.317758
313 2 0.564505 0.581411 0.186067
70 1 0.530049 0.501345 0.442323
355 2 0.635628 0.678651 0.260349
221 1 0.619056 0.550873 0.30029
84 1 0.532902 0.672535 0.407077
319 2 0.641672 0.570198 0.468431
128 1 0.699589 0.694933 0.384312
102 1 0.771629 0.595507 0.243374
266 1 0.893718 0.534607 0.319077
178 1 0.75858 0.557158 0.408613
134 1 0.851933 0.697406 0.335666
302 2 0.806635 0.68222 0.455577
50 1 0.909491 0.597984 0.476657
3 1 0.149394 0.760667 0.34146
277 1 0.189148 0.904715 0.461546
152 1 0.0349195 0.861454 0.379752
140 1 0.176021 0.911709 0.296042
230 1 0.98109 0.911779 0.531088
317 2 0.435356 0.975963 0.419675
32 1 0.474338 0.882377 0.286632
352 2 0.257873 0.813306 0.313378
49 1 0.445281 0.832711 0.443631
92 1 0.314402 0.924869 0.362728
211 1 0.283934 0.793972 0.444638
226 1 0.577827 0.953451 0.429575
330 2 0.590565 0.93695 0.306223
36 1 0.607888 0.799115 0.313034
112 1 0.613068 0.784537 0.466276
268 1 0.719734 0.918582 0.387192
174 1 0.960508 0.79236 0.24751
321 2 0.768997 0.798469 0.372231