ITEM: TIMESTEP
0
ITEM: NUMBER OF ATOMS
360
ITEM: BOX BOUNDS pp pp pp
0.0000000000000000e+00 6.6943295008216896e+00
0.0000000000000000e+00 6.6943295008216896e+00
0.0000000000000000e+00 6.6943295008216896e+00
ITEM: ATOMS id type xs ys zs
1 1 0.166016 0.193683 0.106133
80 1 0.182747 0.0224698 0.0961804
263 1 0.0969589 0.0884393 0.201012
151 1 0.0441897 0.0417497 0.027845
113 1 0.0749294 0.243691 0.230752
30 1 0.283722 0.107208 0.201241
197 1 0.430747 0.164234 0.167525
55 1 0.393633 0.00522474 0.0819348
45 1 0.298584 0.12466 0.0356719
255 1 0.418804 0.0229774 0.243913
94 1 0.532217 0.0633725 0.0302566
236 1 0.72113 0.103145 0.0536608
133 1 0.591139 0.0941477 0.184617
309 2 0.591995 0.230673 0.204047
82 1 0.553711 0.200592 0.0769022
326 2 0.514291 0.000682536 0.147173
88 1 0.732943 0.14744 0.200988
189 1 0.995364 0.170669 0.110012
131 1 0.899559 0.0598689 0.163019
274 1 0.87601 0.224438 0.184638
73 1 0.823597 0.215495 0.0369767
17 1 0.915702 0.0972866 0.00505632
240 1 0.00677008 0.325058 0.118758
26 1 0.0946984 0.48718 0.087779
104 1 0.161774 0.342215 0.100737
260 1 0.0713866 0.258167 0.00187439
360 2 0.0516058 0.385873 0.00919843
207 1 0.0918967 0.409707 0.227953
185 1 0.210624 0.318204 0.248695
256 1 0.311366 0.258313 0.151076
317 2 0.409193 0.337528 0.144176
181 1 0.296842 0.404759 0.0526994
32 1 0.45481 0.445811 0.101756
233 1 0.328131 0.440507 0.221957
268 1 0.399073 0.295194 0.0224201
229 1 0.526154 0.331693 0.197915
40 1 0.685957 0.276829 0.121768
249 1 0.656215 0.412624 0.22522
75 1 0.703345 0.435312 0.0773775
331 2 0.572643 0.443166 0.130326
112 1 0.562424 0.35685 0.0424108
305 2 0.74091 0.325536 0.0224482
61 1 0.945371 0.460581 0.116861
28 1 0.829923 0.35729 0.120078
313 2 0.922664 0.352913 0.210096
182 1 0.795188 0.482192 0.186613
358 2 0.218895 0.503089 0.0855896
226 1 0.134079 0.634865 0.111223
159 1 0.0478688 0.554304 0.223892
157 1 0.203556 0.540496 0.21367
4 1 0.00477886 0.70005 0.152235
308 2 0.130071 0.675598 0.226617
338 2 0.270462 0.635474 0.155776
145 1 0.343655 0.55777 0.0877712
291 2 0.398509 0.67522 0.025845
345 2 0.42846 0.67849 0.175208
206 1 0.3802 0.580513 0.245843
86 1 0.251768 0.669293 0.0217299
178 1 0.511985 0.537081 0.211136
58 1 0.504548 0.626742 0.0899896
271 1 0.64935 0.575088 0.140925
270 1 0.601068 0.707589 0.211869
134 1 0.66139 0.716232 0.0700107
266 1 0.959953 0.620731 0.0299317
100 1 0.762793 0.666524 0.187787
306 2 0.875917 0.707491 0.111944
46 1 0.901566 0.594185 0.171175
235 1 0.795853 0.56971 0.0700838
165 1 0.798644 0.723411 0.0116284
307 2 0.0764325 0.971639 0.129564
253 1 0.174897 0.777297 0.131526
283 1 0.103646 0.88157 0.0400914
68 1 0.0630739 0.845743 0.196517
175 1 0.176906 0.947461 0.222806
56 1 0.338816 0.770972 0.139083
284 1 0.279598 0.905275 0.112952
194 1 0.432952 0.887034 0.16314
339 2 0.305351 0.98013 0.213119
162 1 0.508328 0.772065 0.0910993
246 1 0.576832 0.907714 0.212447
171 1 0.638778 0.966875 0.10185
155 1 0.708005 0.823917 0.241363
350 2 0.673907 0.843793 0.119524
211 1 0.513281 0.917524 0.0294359
2 1 0.799731 0.977427 0.0224203
315 2 0.761703 0.98037 0.146699
335 2 0.944039 0.814572 0.17293
191 1 0.80976 0.834267 0.120774
200 1 0.96184 0.937425 0.0963459
179 1 0.855404 0.92155 0.230929
34 1 0.951248 0.784316 0.0268174
205 1 0.198424 0.183283 0.307814
285 1 0.0813745 0.0893671 0.361637
42 1 0.155948 0.184145 0.465539
347 2 0.184376 0.0576784 0.291976
208 1 0.22077 0.00808911 0.479681
344 2 0.0316327 0.223876 0.351507
170 1 0.293057 0.0274396 0.337807
177 1 0.428031 0.0328122 0.423068
76 1 0.301943 0.134227 0.454971
277 1 0.378013 0.158789 0.334347
311 2 0.478976 0.166367 0.410719
118 1 0.69829 0.000924085 0.25919
57 1 0.514894 0.201294 0.299541
195 1 0.683126 0.132262 0.367492
318 2 0.679443 0.182997 0.491085
239 1 0.577238 0.0942889 0.49229
119 1 0.583434 0.233469 0.433003
49 1 0.5564 0.0466441 0.326487
269 1 0.830357 0.059283 0.302233
31 1 0.960279 0.146688 0.288953
224 1 0.810143 0.125592 0.454964
314 2 0.913739 0.18056 0.399308
281 1 0.950414 0.00958558 0.404834
243 1 0.817049 0.208272 0.326339
203 1 0.117599 0.343754 0.366161
267 1 0.212042 0.442309 0.332034
289 2 0.0576173 0.469594 0.340675
43 1 0.221658 0.390529 0.484554
241 1 0.397709 0.31744 0.291526
102 1 0.421959 0.292993 0.448676
47 1 0.280013 0.282591 0.387542
121 1 0.372344 0.430239 0.396484
325 2 0.471004 0.42206 0.270175
105 1 0.531453 0.349 0.345603
24 1 0.671604 0.275635 0.290979
225 1 0.679046 0.412554 0.379223
276 1 0.719766 0.302399 0.480446
117 1 0.803885 0.374469 0.286391
294 2 0.804154 0.497743 0.36582
214 1 0.94117 0.300878 0.321786
53 1 0.8137 0.432139 0.474241
280 1 0.926272 0.463309 0.288573
161 1 0.972907 0.422501 0.443133
129 1 0.882037 0.292548 0.475422
227 1 0.11617 0.504995 0.447675
164 1 0.162033 0.609582 0.341213
172 1 0.0964714 0.7258 0.436548
329 2 0.192735 0.629456 0.466831
78 1 0.0331046 0.698553 0.303117
139 1 0.27388 0.693934 0.27007
261 1 0.276065 0.524698 0.450278
303 2 0.296927 0.549643 0.329843
123 1 0.389184 0.650346 0.392616
341 2 0.434149 0.536993 0.364619
334 2 0.39292 0.538365 0.496977
38 1 0.563042 0.506257 0.344897
245 1 0.695246 0.557656 0.293623
126 1 0.556677 0.657039 0.349276
74 1 0.721191 0.576503 0.447075
52 1 0.702646 0.713401 0.353831
169 1 0.615011 0.717971 0.486716
302 2 0.843245 0.60166 0.429026
138 1 0.986833 0.572496 0.389916
166 1 0.841501 0.600823 0.303964
230 1 0.930287 0.700674 0.441114
201 1 0.883748 0.737605 0.256549
115 1 0.00187142 0.978733 0.251555
176 1 0.0934742 0.931201 0.366108
333 2 0.02522 0.838341 0.428688
15 1 0.162156 0.800422 0.316259
5 1 0.172291 0.860871 0.488444
327 2 0.218936 0.908911 0.372958
70 1 0.26047 0.756662 0.423962
196 1 0.4466 0.764918 0.27342
136 1 0.310899 0.864743 0.263926
183 1 0.34273 0.885018 0.417549
90 1 0.45887 0.782953 0.440614
152 1 0.476996 0.904651 0.329066
278 1 0.705796 0.992815 0.421069
264 1 0.541662 0.939878 0.452125
346 2 0.608448 0.938773 0.330633
272 1 0.579259 0.803832 0.346571
95 1 0.678974 0.851664 0.442303
97 1 0.792011 0.759356 0.49476
316 2 0.82752 0.752026 0.364473
337 2 0.826866 0.992727 0.445918
107 1 0.976858 0.858277 0.324928
288 1 0.903708 0.88331 0.473633
98 1 0.799823 0.883412 0.366332
180 1 0.112096 0.10054 0.584468
22 1 0.0335834 0.211312 0.660441
198 1 0.165951 0.143413 0.729779
109 1 0.265254 0.108476 0.607143
89 1 0.431243 0.132628 0.532881
323 2 0.366643 0.17333 0.658302
355 2 0.487536 0.0158424 0.551067
14 1 0.405972 0.045632 0.670047
199 1 0.314673 0.246444 0.557611
254 1 0.729922 0.0865338 0.587545
19 1 0.608511 0.214638 0.586276
348 2 0.668235 0.145858 0.691166
108 1 0.550354 0.0941174 0.676515
213 1 0.989948 0.136473 0.505124
304 2 0.998155 0.0524028 0.643582
295 2 0.847606 0.12222 0.633892
192 1 0.801584 0.224656 0.581185
287 1 0.895115 0.026362 0.561303
232 1 0.937545 0.0980036 0.735154
23 1 0.0318907 0.289419 0.502655
193 1 0.164074 0.250895 0.598816
257 1 0.0965724 0.403319 0.578174
300 2 0.160612 0.454414 0.719264
21 1 0.249799 0.386404 0.639383
149 1 0.00253527 0.381508 0.719088
116 1 0.140809 0.310003 0.739311
220 1 0.300408 0.269752 0.720602
96 1 0.387103 0.398299 0.555606
35 1 0.380807 0.425948 0.708347
6 1 0.444714 0.277497 0.629454
221 1 0.716594 0.257974 0.716954
340 2 0.553147 0.251286 0.702264
275 1 0.543319 0.372739 0.500152
9 1 0.520111 0.471278 0.643574
84 1 0.619664 0.360196 0.661508
41 1 0.659514 0.460324 0.560113
72 1 0.880636 0.266131 0.716023
356 2 0.937897 0.289765 0.6031
212 1 0.767301 0.378317 0.616574
154 1 0.914525 0.405516 0.606133
87 1 0.178527 0.727486 0.583937
242 1 0.0629316 0.623678 0.540985
174 1 0.191314 0.529416 0.59036
330 2 0.0821684 0.726425 0.671599
218 1 0.0523861 0.513556 0.663135
65 1 0.15668 0.632995 0.708954
349 2 0.0165037 0.501993 0.534912
66 1 0.260358 0.526175 0.729204
92 1 0.459579 0.656732 0.531367
312 2 0.27573 0.655803 0.646234
7 1 0.311426 0.65194 0.525787
231 1 0.369292 0.548821 0.619423
187 1 0.377431 0.725762 0.644156
237 1 0.479013 0.6209 0.697088
258 1 0.517385 0.516971 0.502203
33 1 0.602693 0.610218 0.605301
144 1 0.673328 0.690479 0.730651
93 1 0.693847 0.530495 0.687908
259 1 0.761982 0.642703 0.596726
353 2 0.772775 0.519581 0.589235
153 1 0.897109 0.544585 0.533855
282 1 0.974922 0.633903 0.715917
125 1 0.916476 0.702962 0.589631
146 1 0.84523 0.534107 0.690387
91 1 0.831027 0.715288 0.71761
59 1 0.100337 0.996166 0.706052
124 1 0.237092 0.754311 0.72568
336 2 0.164114 0.955882 0.582742
190 1 0.12926 0.85219 0.65831
77 1 0.0115629 0.814175 0.561916
210 1 0.0440226 0.973236 0.526811
111 1 0.357984 0.989192 0.546172
292 2 0.358869 0.776638 0.525241
10 1 0.256613 0.978668 0.681475
120 1 0.279929 0.844346 0.592382
63 1 0.370188 0.876116 0.711466
67 1 0.446162 0.870777 0.570096
216 1 0.538871 0.891401 0.705473
322 2 0.573134 0.848473 0.533101
158 1 0.536221 0.751108 0.636584
64 1 0.603407 0.955436 0.590864
140 1 0.679159 0.807207 0.595413
71 1 0.668579 0.997005 0.736495
290 2 0.755011 0.893755 0.666582
25 1 0.964367 0.936617 0.670573
244 1 0.969939 0.78856 0.716232
168 1 0.765204 0.920652 0.54488
27 1 0.824918 0.994704 0.682839
39 1 0.853566 0.829274 0.623148
135 1 0.157836 0.128135 0.955072
36 1 0.0436753 0.0545728 0.862052
8 1 0.19669 0.0151923 0.832429
251 1 0.229511 0.216667 0.838231
188 1 0.0702847 0.214125 0.848854
293 2 0.020376 0.153281 0.948673
296 2 0.131113 0.00129979 0.947844
122 1 0.315289 0.116688 0.768316
265 1 0.441349 0.188823 0.759458
299 2 0.275213 0.107355 0.903305
147 1 0.393494 0.188327 0.911531
250 1 0.489037 0.0245567 0.795153
127 1 0.409594 0.0408221 0.933937
321 2 0.515625 0.129879 0.920245
106 1 0.581535 0.172588 0.804678
142 1 0.632073 0.0515994 0.88427
357 2 0.700534 0.183303 0.833642
273 1 0.647726 0.20353 0.96059
248 1 0.783569 0.137203 0.753081
202 1 0.907995 0.19136 0.867574
69 1 0.7757 0.113988 0.917232
18 1 0.876647 0.0151365 0.848587
298 2 0.149625 0.29763 0.907986
60 1 0.037152 0.369194 0.879363
141 1 0.173962 0.416992 0.947631
143 1 0.241817 0.40241 0.808095
352 2 0.300645 0.379785 0.924911
204 1 0.366751 0.32238 0.841842
48 1 0.252642 0.273052 0.99103
54 1 0.432118 0.422743 0.948017
320 2 0.340882 0.478891 0.820824
167 1 0.604862 0.468374 0.803162
101 1 0.507925 0.273706 0.912748
85 1 0.505312 0.357368 0.758709
319 2 0.559814 0.40645 0.900158
103 1 0.710244 0.438572 0.922822
29 1 0.637885 0.313307 0.830599
110 1 0.748306 0.410516 0.772618
173 1 0.579683 0.496141 0.998349
351 2 0.966072 0.277119 0.803464
215 1 0.923221 0.314544 0.982043
12 1 0.782816 0.270308 0.894627
219 1 0.843482 0.437948 0.991278
150 1 0.882993 0.371476 0.825465
342 2 0.828971 0.481243 0.870372
156 1 0.996518 0.493101 0.959149
128 1 0.0986663 0.730072 0.987421
3 1 0.109459 0.514776 0.82003
286 1 0.13532 0.582057 0.967143
222 1 0.0136544 0.62663 0.880532
114 1 0.20663 0.641048 0.855357
209 1 0.461024 0.516013 0.812627
137 1 0.284287 0.540026 0.927066
37 1 0.332887 0.64593 0.772538
186 1 0.347742 0.709131 0.905417
148 1 0.45156 0.57763 0.952859
332 2 0.447499 0.66194 0.840053
234 1 0.683911 0.604753 0.972826
13 1 0.568886 0.615203 0.842842
328 2 0.551143 0.645704 0.966836
16 1 0.651863 0.739979 0.892586
11 1 0.730728 0.575251 0.826925
163 1 0.946192 0.518932 0.809994
279 1 0.845263 0.590422 0.928445
343 2 0.864415 0.622568 0.794141
247 1 0.80152 0.727045 0.856644
238 1 0.243449 0.810405 0.992711
301 2 0.192739 0.756128 0.897391
297 2 0.0340689 0.825672 0.919384
324 2 0.188889 0.901142 0.767375
132 1 0.106518 0.75813 0.799476
79 1 0.143368 0.877966 0.891573
252 1 0.0104491 0.892754 0.814994
228 1 0.385287 0.852329 0.997613
310 2 0.409243 0.779096 0.779674
217 1 0.33835 0.976718 0.822279
50 1 0.286031 0.840746 0.846796
99 1 0.262975 0.973564 0.971046
20 1 0.447603 0.865807 0.858839
184 1 0.491729 0.751981 0.938947
51 1 0.689407 0.832057 0.763492
62 1 0.528728 0.756452 0.783897
354 2 0.662698 0.97155 0.980267
81 1 0.735424 0.94301 0.87016
359 2 0.524857 0.995518 0.919371
83 1 0.588688 0.888247 0.877378
44 1 0.677883 0.849792 0.992526
160 1 0.83155 0.847421 0.933448
262 1 0.942184 0.757782 0.869785
223 1 0.969127 0.925195 0.949873
130 1 0.844217 0.872383 0.775849
ITEM: TIMESTEP
100000
ITEM: NUMBER OF ATOMS
360
ITEM: BOX BOUNDS pp pp pp
0.0000000000000000e+00 6.6943295008216896e+00
0.0000000000000000e+00 6.6943295008216896e+00
0.0000000000000000e+00 6.6943295008216896e+00
ITEM: ATOMS id type xs ys zs
86 1 0.134098 0.155696 0.0713221
189 1 0.0804362 0.107671 0.21319
277 1 0.226619 0.0714751 0.188756
256 1 0.217798 0.224645 0.203606
45 1 0.199877 0.0181381 0.0409539
260 1 0.0480905 0.0423715 0.980325
185 1 0.299438 0.150947 0.0664396
229 1 0.372094 0.232488 0.19387
197 1 0.392257 0.0640771 0.166298
101 1 0.475913 0.151802 0.0667522
296 2 0.304106 0.990972 0.0970193
236 1 0.498625 0.00518373 0.0548502
133 1 0.541441 0.215911 0.19975
269 1 0.618731 0.0969582 0.116822
335 2 0.711675 0.174441 0.0772693
40 1 0.683619 0.250697 0.176685
322 2 0.521599 0.0669088 0.189559
171 1 0.757494 0.0670367 0.0227601
103 1 0.596481 0.250799 0.0608917
307 2 0.0104351 0.106106 0.0967086
88 1 0.751737 0.112719 0.200701
73 1 -0.000778718 0.242808 0.113204
68 1 0.923425 0.0927147 0.200739
115 1 0.851545 0.170446 0.0920077
191 1 0.916126 0.0281256 0.0523428
357 2 0.949623 0.157045 -0.00503532
315 2 0.817957 0.02497 0.133854
1 1 0.839648 0.258652 0.225293
317 2 0.270372 0.276957 0.077502
48 1 0.150109 0.324721 0.101003
358 2 0.121924 0.444955 0.061592
205 1 0.0741306 0.268955 0.245799
181 1 0.0310234 0.410464 0.184299
206 1 0.225723 0.49017 0.138603
203 1 0.169697 0.399207 0.254686
188 1 0.060564 0.271032 0.976002
233 1 0.267996 0.398441 0.0129878
145 1 0.382179 0.283958 0.0289959
157 1 0.389703 0.469159 0.136022
104 1 0.286558 0.356653 0.172595
173 1 0.4852 0.341103 0.134367
334 2 0.390106 0.377736 0.246152
178 1 0.635893 0.390775 0.134186
325 2 0.548493 0.469204 0.0836055
123 1 0.525926 0.466751 0.215436
147 1 0.526082 0.385776 0.989026
219 1 0.752109 0.296338 0.0463603
75 1 0.671321 0.439332 0.984178
360 2 0.96355 0.210542 0.239194
266 1 0.776294 0.476035 0.0926635
240 1 0.891044 0.348548 0.105726
313 2 0.773812 0.362265 0.173491
113 1 0.856649 0.4233 0.235577
128 1 0.201592 0.639219 0.126361
46 1 0.0640304 0.552611 0.101073
222 1 0.0838316 0.675255 0.021858
301 2 0.0659459 0.665683 0.14568
159 1 0.109214 0.551926 0.234144
79 1 0.267905 0.676675 0.991932
137 1 0.34071 0.531331 0.00161687
126 1 0.483588 0.586219 0.137538
310 2 0.404497 0.654724 0.0401192
228 1 0.340436 0.612218 0.186407
308 2 0.430753 0.5426 0.258385
272 1 0.634592 0.561864 0.106157
131 1 0.579187 0.720657 0.182116
225 1 0.726702 0.722127 0.221423
291 2 0.63858 0.621716 0.232052
245 1 0.525287 0.682215 0.0275008
249 1 0.769937 0.632118 0.101045
207 1 0.917181 0.505585 0.116115
61 1 0.982426 0.627754 0.238686
338 2 0.942214 0.51209 0.243739
252 1 0.935099 0.655663 0.0680836
28 1 0.821005 0.575174 0.228192
345 2 0.86052 0.685698 0.22095
80 1 0.0650678 0.978028 0.107264
238 1 0.184385 0.792207 0.0855046
176 1 0.230648 0.921506 0.185987
200 1 0.0773616 0.850126 0.206323
286 1 0.990133 0.79757 0.0794484
56 1 0.242469 0.776021 0.221181
284 1 0.418409 0.74195 0.144217
114 1 0.281464 0.887168 1.00521
99 1 0.401342 0.89183 0.115855
326 2 0.294471 0.825056 0.116697
354 2 0.487419 0.820896 0.209922
350 2 0.484957 0.815475 0.05866
94 1 0.580033 0.870419 0.128789
246 1 0.67813 0.969819 0.201286
4 1 0.694471 0.75868 0.0497855
270 1 0.649062 0.962437 0.0324936
100 1 0.785001 0.915596 0.0751321
226 1 0.844044 0.7749 0.131149
339 2 0.981123 0.925881 0.017999
283 1 0.912075 0.913703 0.153188
182 1 0.948285 0.796052 0.256641
152 1 0.809155 0.842394 0.276827
42 1 0.144687 0.144285 0.361659
107 1 0.0344614 0.0202633 0.398798
208 1 0.266208 0.0922637 0.457839
109 1 0.262017 0.247389 0.466843
76 1 0.412318 0.192228 0.436789
241 1 0.290276 0.180416 0.330554
111 1 0.410911 0.0401463 0.421787
57 1 0.444487 0.116523 0.293474
195 1 0.688578 0.0939075 0.439698
239 1 0.568041 0.206344 0.390616
179 1 0.595676 0.0953875 0.286559
337 2 0.723902 0.0761531 0.328747
31 1 0.732492 0.20443 0.338344
84 1 0.537078 0.0831425 0.487049
285 1 0.985767 0.167919 0.360997
281 1 0.846906 0.0982377 0.365515
302 2 0.861389 0.226323 0.352034
287 1 0.942415 0.106309 0.506611
224 1 0.798863 0.189934 0.484731
344 2 0.132243 0.434096 0.439893
43 1 0.135617 0.320896 0.377777
161 1 0.0365992 0.466122 0.346179
102 1 0.404983 0.347896 0.466676
90 1 0.300654 0.495464 0.280633
47 1 0.295101 0.324838 0.329698
105 1 0.428709 0.43548 0.345058
32 1 0.434535 0.274264 0.321569
164 1 0.27461 0.437131 0.436143
305 2 0.512766 0.315768 0.406391
112 1 0.656064 0.320374 0.439043
121 1 0.574865 0.352762 0.294101
342 2 0.631999 0.447059 0.365467
41 1 0.540897 0.429363 0.461306
274 1 0.730152 0.350643 0.290956
280 1 0.789808 0.480495 0.367036
214 1 0.981697 0.336531 0.430279
263 1 0.950988 0.318408 0.294043
294 2 0.893535 0.409124 0.358447
243 1 0.82694 0.329969 0.420406
129 1 0.903319 0.468128 0.485789
227 1 0.17847 0.534023 0.384214
267 1 0.107147 0.719975 0.263766
78 1 0.14759 0.715219 0.413573
289 2 0.0881772 0.623921 0.348957
53 1 0.0479125 0.557467 0.489724
261 1 0.233891 0.639975 0.30595
341 2 0.241468 0.652737 0.440384
139 1 0.455955 0.671847 0.26579
258 1 0.373976 0.597763 0.37678
303 2 0.4703 0.686806 0.403765
172 1 0.345443 0.754497 0.341847
7 1 0.373013 0.682599 0.507131
38 1 0.68375 0.490813 0.235675
74 1 0.537031 0.54505 0.341673
117 1 0.710161 0.613113 0.349884
52 1 0.587724 0.693867 0.347764
140 1 0.700213 0.692051 0.500103
33 1 0.667922 0.525013 0.468009
346 2 0.712947 0.762811 0.349354
70 1 0.543405 0.622797 0.476505
166 1 0.991662 0.706724 0.38454
153 1 0.915937 0.557249 0.35673
259 1 0.83317 0.699393 0.338558
125 1 0.815141 0.59126 0.490382
349 2 0.934647 0.617401 0.467338
210 1 0.159499 0.995537 0.311592
230 1 0.194062 0.853745 0.344866
155 1 0.0435151 0.857381 0.392751
170 1 0.166094 0.957618 0.470381
201 1 1.00743 0.972795 0.255442
253 1 0.264274 0.784678 0.490919
175 1 0.369989 0.867627 0.254852
309 2 0.425231 0.956218 0.32838
30 1 0.311068 0.0214277 0.30789
183 1 0.489731 0.822568 0.35704
136 1 0.328762 0.904047 0.417006
255 1 0.485022 0.915021 0.495794
194 1 0.508513 0.951446 0.227415
49 1 0.576791 0.965839 0.382751
118 1 0.737057 0.942905 0.375775
264 1 0.621469 0.840928 0.284951
169 1 0.635704 0.823254 0.429586
98 1 0.824127 0.992464 0.25516
95 1 0.795458 0.812863 0.447696
254 1 0.907154 0.941042 0.377253
292 2 0.917504 0.809443 0.373441
23 1 0.0684288 0.206032 0.487052
347 2 0.123831 0.0905012 0.517093
180 1 0.0589485 0.12289 0.622574
59 1 0.189735 0.0138691 0.627882
193 1 0.202165 0.175391 0.590307
300 2 0.128622 0.236212 0.682666
10 1 0.31664 0.101548 0.659848
355 2 0.37655 0.103645 0.541574
199 1 0.472415 0.135527 0.629504
96 1 0.369746 0.229024 0.585324
311 2 0.478844 0.279445 0.669908
336 2 0.457005 0.114551 0.770279
212 1 0.652534 0.195077 0.537013
108 1 0.595879 0.214223 0.691308
106 1 0.630029 0.0638399 0.636047
348 2 0.671317 0.965627 0.75064
278 1 0.81704 0.0162043 0.498568
19 1 0.75743 0.221333 0.664019
85 1 0.759188 0.0901875 0.711256
314 2 0.918953 0.228388 0.47639
192 1 0.90863 0.164077 0.639531
318 2 0.747872 0.107327 0.577417
232 1 0.893057 0.00560753 0.631161
21 1 0.156716 0.317744 0.589035
22 1 0.00490794 0.281338 0.608119
257 1 0.0407403 0.421835 0.563347
3 1 0.0866318 0.350002 0.715596
82 1 0.240704 0.278334 0.713923
242 1 0.182711 0.493232 0.553838
9 1 0.478569 0.388589 0.60576
231 1 0.30965 0.376263 0.58355
35 1 0.501037 0.499947 0.71699
122 1 0.377149 0.386273 0.735259
119 1 0.519276 0.26769 0.531872
275 1 0.633365 0.342015 0.617182
11 1 0.653396 0.46227 0.728761
24 1 0.75062 0.416711 0.522106
340 2 0.730319 0.297066 0.558101
265 1 0.53374 0.363809 0.778235
72 1 0.78578 0.398696 0.680224
351 2 0.855414 0.297613 0.700052
213 1 0.869329 0.312475 0.564812
149 1 0.942305 0.419403 0.688635
356 2 0.84401 0.475227 0.596605
163 1 0.0590975 0.529039 0.680033
174 1 0.200737 0.595567 0.694313
132 1 0.169787 0.652636 0.546325
282 1 0.0615681 0.68978 0.708539
15 1 0.00813955 0.692723 0.567572
93 1 0.4343 0.521527 0.521155
87 1 0.306209 0.569198 0.590199
329 2 0.388311 0.47794 0.640014
92 1 0.465656 0.624504 0.624266
124 1 0.29113 0.724593 0.637877
237 1 0.353921 0.558229 0.738763
167 1 0.573658 0.522434 0.584158
276 1 0.723282 0.545736 0.609074
144 1 0.612547 0.664494 0.625544
154 1 0.920325 0.5798 0.603843
110 1 0.749457 0.686853 0.66651
77 1 0.908446 0.694109 0.705415
138 1 0.85518 0.731085 0.548982
221 1 0.835516 0.53084 0.725905
288 1 0.0413368 0.976564 0.551022
97 1 0.107011 0.81162 0.537158
304 2 0.116035 0.906059 0.641284
324 2 0.159373 0.762385 0.648503
36 1 0.0413722 0.977757 0.722001
168 1 0.00649874 0.821038 0.677542
5 1 0.244351 0.884342 0.612445
63 1 0.436308 0.00693664 0.702993
327 2 0.407395 0.798449 0.488173
120 1 0.344058 0.97968 0.557774
187 1 0.3928 0.845849 0.620774
333 2 0.299181 0.817817 0.733987
190 1 0.301679 0.952717 0.738927
177 1 0.657904 0.948837 0.522303
290 2 0.653413 0.726093 0.739411
67 1 0.530289 0.770043 0.553682
312 2 0.489758 0.0139089 0.580301
158 1 0.665537 0.810666 0.615119
64 1 0.5565 0.922733 0.653782
216 1 0.520979 0.78202 0.710292
91 1 0.941045 0.859685 0.510157
71 1 0.741084 0.939133 0.64491
316 2 0.792729 0.899045 0.532796
51 1 0.852277 0.848329 0.661116
295 2 0.0274197 0.170906 0.745459
198 1 0.180882 0.127193 0.739218
268 1 0.217061 0.11482 0.919876
8 1 0.0920296 0.0730765 0.837696
60 1 0.125647 0.239686 0.829654
293 2 0.0985073 0.145369 0.939703
142 1 0.35025 0.0316938 0.986462
89 1 0.37904 0.221874 0.746129
319 2 0.249944 0.200858 0.84873
127 1 0.323046 0.082273 0.81301
250 1 0.473584 0.0559581 0.893867
54 1 0.371685 0.183511 0.912781
6 1 0.515701 0.213195 0.828815
14 1 0.566748 0.026482 0.782146
211 1 0.596105 0.133655 0.977337
2 1 0.665438 0.143209 0.820315
162 1 0.704425 -0.00418797 0.879186
81 1 0.753087 0.188592 0.94542
25 1 0.93216 0.0803673 0.778084
17 1 0.862009 0.0787092 0.91124
202 1 0.823906 0.214518 0.811808
215 1 0.989406 0.182245 0.88124
251 1 0.216045 0.258011 0.966095
323 2 0.14959 0.381095 0.821001
141 1 0.135339 0.399714 0.936119
298 2 0.250197 0.470064 0.901551
352 2 0.401665 0.426229 -0.00561979
331 2 0.502331 0.259614 0.973231
204 1 0.218216 0.437683 0.717155
273 1 0.421556 0.325891 0.892377
143 1 0.270741 0.346481 0.852896
220 1 0.418706 0.479947 0.85459
299 2 0.634248 0.412896 0.847078
29 1 0.612713 0.300713 0.912025
150 1 0.691116 0.309362 0.788145
234 1 0.746465 0.470734 0.848092
332 2 0.772495 0.296926 0.894619
156 1 0.00682326 0.40657 0.0237764
116 1 0.960334 0.273924 0.763825
262 1 1.00135 0.394895 0.862713
69 1 0.893777 0.270291 0.961805
279 1 0.848229 0.409927 0.972826
12 1 0.851044 0.36848 0.817562
66 1 0.121294 0.512886 0.824799
186 1 0.16403 0.549256 0.973406
65 1 0.0941219 0.654799 0.856603
37 1 0.206678 0.723216 0.762667
26 1 -0.00623156 0.551437 0.947879
209 1 0.489195 0.529571 1.00177
184 1 0.248357 0.595261 0.853163
320 2 0.320551 0.706663 0.884324
58 1 0.425066 0.628397 0.907107
16 1 0.381655 0.713503 0.7679
148 1 0.578056 0.518671 0.865205
13 1 0.529826 0.636278 0.778656
306 2 0.570746 0.645436 0.9137
62 1 0.681679 0.60214 0.774243
165 1 0.684832 0.595893 0.961463
271 1 0.656893 0.734275 0.872182
330 2 0.889661 0.480723 0.868285
146 1 0.846424 0.571044 0.950966
218 1 0.972146 0.584933 0.795973
244 1 0.814273 0.646409 0.825364
39 1 0.955587 0.695189 0.903833
34 1 0.814428 0.720072 0.964748
321 2 0.176211 0.000898463 0.757613
151 1 0.0972679 0.893495 0.976282
27 1 0.0387591 0.81922 0.839461
135 1 0.213508 0.962692 0.870009
297 2 0.0897465 0.944972 0.850686
50 1 0.162273 0.870479 0.751645
223 1 0.179825 0.782569 0.918506
353 2 0.0345719 0.7773 0.958279
134 1 0.391272 0.771382 0.988508
55 1 0.432309 0.915409 0.95
359 2 0.359907 0.977167 0.871973
217 1 0.321697 0.840687 0.866428
20 1 0.437596 0.883478 0.797536
196 1 0.496141 0.758035 0.871432
44 1 0.730046 0.833475 0.772452
328 2 0.569403 0.967604 0.930394
235 1 0.579365 0.836257 0.972699
83 1 0.588537 0.881695 0.822673
247 1 0.736181 0.862341 0.935981
130 1 0.891945 0.808319 0.815603
248 1 0.825956 0.960057 0.783751
160 1 0.887791 0.853055 0.972323
343 2 0.832674 0.953199 0.91343
18 1 0.963824 0.946687 0.883638
ITEM: TIMESTEP
200000
ITEM: NUMBER OF ATOMS
360
ITEM: BOX BOUNDS pp pp pp
0.0000000000000000e+00 6.6943295008216896e+00
0.0000000000000000e+00 6.6943295008216896e+00
0.0000000000000000e+00 6.6943295008216896e+00
ITEM: ATOMS id type xs ys zs
189 1 0.126499 0.224912 0.132841
86 1 0.18562 0.0881496 0.09946
80 1 0.0931507 0.0939752 0.217449
309 2 0.22697 0.160668 0.198021
302 2 0.0423807 0.219888 0.249086
256 1 0.352758 0.0978506 0.105738
101 1 0.466391 0.102747 0.00318457
269 1 0.455412 0.200363 0.187967
30 1 0.28335 0.0433858 0.233199
194 1 0.434152 0.075593 0.284241
171 1 0.54698 0.064483 0.167229
211 1 0.699656 0.113933 0.163254
246 1 0.649686 0.00459147 0.27449
103 1 0.600559 0.2416 0.134475
29 1 0.628189 0.120649 0.0213706
188 1 0.00464611 0.125486 0.0914218
191 1 0.889512 0.191751 0.987127
34 1 0.851412 0.106878 0.125382
68 1 0.959099 0.134998 0.237626
73 1 0.955387 0.263471 0.136798
66 1 0.00825524 0.296164 0.00727423
360 2 0.0774679 0.338795 0.151982
181 1 0.100861 0.467061 0.16386
141 1 0.141886 0.370498 0.0409418
48 1 0.181848 0.338004 0.246134
358 2 0.22848 0.403009 0.133382
46 1 0.223348 0.523313 0.0704625
185 1 0.282147 0.258775 0.112469
313 2 0.387703 0.302164 0.143622
173 1 0.335604 0.405171 0.0682928
145 1 0.410613 0.236234 0.0392273
104 1 0.332952 0.370588 0.224832
325 2 0.435382 0.388053 0.993166
178 1 0.49482 0.348185 0.107837
40 1 0.787562 0.251009 0.168179
219 1 0.638997 0.39619 0.0391572
266 1 0.644326 0.395073 0.205549
357 2 0.73176 0.343046 0.115031
156 1 0.958488 0.431834 0.0644716
81 1 0.848425 0.334411 0.0443057
113 1 0.869013 0.545738 0.15375
115 1 0.820718 0.403329 0.208778
279 1 0.766221 0.470994 0.0421576
161 1 0.972783 0.399579 0.229541
330 2 0.0745713 0.477023 0.0228432
286 1 0.146669 0.638412 0.130341
130 1 0.0259142 0.750995 0.0888311
338 2 0.0384302 0.685377 0.218134
128 1 0.189697 0.713525 0.985906
238 1 0.144397 0.793325 0.203241
159 1 0.236621 0.498268 0.225582
206 1 0.301742 0.645172 0.160895
175 1 0.454292 0.641792 0.132775
52 1 0.385848 0.510357 0.16996
186 1 0.428734 0.527589 0.0274525
126 1 0.544463 0.514861 0.117669
123 1 0.714182 0.525386 0.166252
148 1 0.616554 0.67771 0.0960509
249 1 0.744437 0.676638 0.201785
228 1 0.583216 0.615629 0.229647
339 2 0.886632 0.544328 0.0349481
26 1 0.00570312 0.59152 0.0903242
61 1 0.749989 0.628136 0.0316902
226 1 0.913229 0.716397 0.203176
283 1 0.849064 0.758271 0.0592015
56 1 0.272835 0.95846 0.0906967
277 1 0.069598 0.999853 0.0431757
217 1 0.142352 0.871238 0.0330521
315 2 0.041456 0.891785 0.124562
18 1 0.144873 0.954626 0.186192
200 1 0.00403637 0.857564 0.264696
229 1 0.417107 0.948558 0.160753
354 2 0.373818 0.755743 0.156252
172 1 0.264536 0.78065 0.0945948
176 1 0.426671 0.795918 0.0456269
296 2 0.402679 0.91907 0.0334095
261 1 0.272293 0.884952 0.234931
250 1 0.527535 0.962069 0.0312691
225 1 0.534112 0.764057 0.203779
236 1 0.580883 0.904823 0.16987
270 1 0.675591 0.97468 0.0820137
98 1 0.705425 0.815072 0.12086
99 1 0.572853 0.812088 0.046023
337 2 0.715843 0.927287 0.193519
260 1 0.963322 0.96923 0.178188
17 1 0.823943 0.924375 0.0858853
326 2 0.914734 0.842983 0.151907
88 1 0.813168 0.853408 0.227931
290 2 0.915308 0.0180545 0.0619012
42 1 0.168891 0.207333 0.313744
201 1 0.0145419 0.155184 0.372088
285 1 0.193633 0.165755 0.467093
210 1 0.165308 0.0511179 0.359547
180 1 0.0338589 0.0382704 0.477809
347 2 0.211857 0.041372 0.482619
109 1 0.319605 0.193185 0.285056
241 1 0.319335 0.0808133 0.390248
57 1 0.459 0.209143 0.359666
331 2 0.251916 0.947738 0.350262
136 1 0.382311 0.950345 0.364302
32 1 0.635581 0.176435 0.292317
195 1 0.699311 0.1358 0.422485
255 1 0.558687 0.0641252 0.3729
316 2 0.702053 0.259348 0.503512
179 1 0.784822 0.158702 0.290415
1 1 0.821169 0.232 0.427258
263 1 0.908754 0.261542 0.302225
281 1 0.879401 0.0654782 0.35756
278 1 0.785812 0.0135892 0.457189
214 1 0.956481 0.30814 0.46353
329 2 0.0966182 0.263299 0.461156
205 1 0.0526488 0.320854 0.336955
23 1 0.198694 0.311124 0.412608
43 1 0.103642 0.465869 0.311315
231 1 0.0708444 0.399783 0.470472
133 1 0.343726 0.325651 0.375129
203 1 0.246019 0.446076 0.354247
352 2 0.437797 0.39132 0.297278
76 1 0.332017 0.414819 0.49714
157 1 0.529877 0.305192 0.265523
47 1 0.497435 0.388687 0.417738
121 1 0.517639 0.476915 0.275598
112 1 0.607611 0.280122 0.406371
31 1 0.738933 0.298814 0.304436
334 2 0.62413 0.386372 0.351656
11 1 0.733001 0.370337 0.443894
243 1 0.616035 0.501444 0.409925
294 2 0.99384 0.434229 0.370988
38 1 0.737346 0.47266 0.307595
349 2 0.873989 0.498222 0.2882
274 1 0.868835 0.399729 0.367314
227 1 0.0113559 0.668356 0.345112
164 1 0.131914 0.609534 0.277709
253 1 0.169437 0.692794 0.391651
87 1 0.0733206 0.5529 0.442581
289 2 0.0732222 0.684451 0.459799
341 2 0.196993 0.564579 0.398377
301 2 0.098658 0.754376 0.310304
183 1 0.428172 0.631477 0.278604
90 1 0.290931 0.598961 0.327433
74 1 0.326208 0.567963 0.499281
258 1 0.29891 0.718976 0.481875
303 2 0.418878 0.612276 0.405802
117 1 0.39587 0.498077 0.354201
140 1 0.442227 0.689581 0.505426
267 1 0.273667 0.743968 0.282913
345 2 0.6008 0.723396 0.301436
41 1 0.538809 0.634634 0.393422
259 1 0.687147 0.635216 0.34331
340 2 0.671634 0.615856 0.474198
153 1 0.992437 0.564196 0.245418
129 1 0.930467 0.546897 0.395132
28 1 0.835043 0.620442 0.30684
280 1 0.793043 0.683177 0.455017
24 1 0.773321 0.530398 0.440144
346 2 0.766191 0.740357 0.307269
166 1 0.888865 0.755114 0.350193
78 1 0.141104 0.883818 0.330541
254 1 0.026266 0.00659705 0.319888
307 2 0.0513662 0.925619 0.416493
287 1 0.0281203 0.799573 0.413736
304 2 0.190873 0.783451 0.507673
107 1 0.156928 0.895324 0.490178
197 1 0.407071 0.831177 0.269104
230 1 0.259219 0.839038 0.408812
308 2 0.376604 0.745112 0.363026
7 1 0.400544 0.834317 0.461738
167 1 0.508442 0.78336 0.374517
170 1 0.305475 0.967207 0.520826
131 1 0.668825 0.766231 0.419985
63 1 0.491431 0.965861 0.479621
264 1 0.67015 0.825011 0.282438
95 1 0.518282 0.935146 0.302523
49 1 0.633124 0.917837 0.410102