ITEM: TIMESTEP
0
ITEM: NUMBER OF ATOMS
360
ITEM: BOX BOUNDS pp pp pp
0.0000000000000000e+00 6.6943295008216896e+00
0.0000000000000000e+00 6.6943295008216896e+00
0.0000000000000000e+00 6.6943295008216896e+00
ITEM: ATOMS id type xs ys zs
117 1 0.0789374 0.159673 0.171627
249 1 0.243249 0.0727021 0.0631683
296 2 0.247136 0.0090375 0.218944
305 2 0.00014456 0.202009 0.0602315
275 1 0.104553 0.0227218 0.117946
244 1 0.10435 0.161097 0.00659112
5 1 0.291386 0.226884 0.18052
162 1 0.357029 0.0700974 0.187288
161 1 0.489769 0.02711 0.0863627
203 1 0.333321 0.198288 0.0506985
12 1 0.457376 0.180657 0.119931
310 2 0.36455 0.0766934 0.0620769
69 1 0.593321 0.115431 0.141872
335 2 0.686428 0.0405542 0.0814193
185 1 0.734726 0.0973355 0.211923
64 1 0.660818 0.239385 0.185279
146 1 0.753599 0.168808 0.0834544
271 1 0.896037 0.0776755 0.207107
98 1 0.887553 0.231481 0.127787
43 1 0.970963 0.0770347 0.0641213
73 1 0.82116 0.00788128 0.0904386
115 1 0.804151 0.238742 0.243115
100 1 0.0266804 0.310416 0.130986
265 1 0.10273 0.350544 0.244578
130 1 0.179999 0.257192 0.0821175
242 1 0.119829 0.437606 0.124216
214 1 0.249339 0.366007 0.162626
58 1 0.4105 0.33312 0.212629
297 2 0.318721 0.449113 0.196482
166 1 0.39283 0.464665 0.0908712
94 1 0.446002 0.307066 0.0489657
118 1 0.613524 0.264812 0.03657
298 2 0.528922 0.313185 0.147052
80 1 0.740942 0.437282 0.137221
110 1 0.517924 0.474151 0.191579
289 2 0.664375 0.378874 0.0271604
2 1 0.631565 0.380493 0.233635
123 1 0.552364 0.431796 0.0465291
317 2 0.988623 0.415557 0.198479
18 1 0.860885 0.369898 0.200677
71 1 0.755732 0.313948 0.048365
173 1 0.904965 0.317064 0.00253234
288 1 0.997603 0.431256 0.0158247
319 2 0.780798 0.445188 0.0211416
112 1 0.108325 0.596826 0.12872
34 1 0.227075 0.507702 0.242954
339 2 0.049427 0.719707 0.128283
252 1 0.0849265 0.696838 0.00715101
324 2 0.235694 0.610484 0.150439
257 1 0.179727 0.732338 0.106198
233 1 0.247644 0.50206 0.0826414
222 1 0.0178285 0.650404 0.236499
248 1 0.224379 0.62009 0.00624384
92 1 0.00304101 0.573587 0.0026069
197 1 0.364124 0.580996 0.235135
150 1 0.355947 0.600998 0.0914098
113 1 0.489324 0.702063 0.178182
21 1 0.370088 0.729029 0.0247789
29 1 0.691909 0.522794 0.00165982
107 1 0.5138 0.588248 0.0694392
60 1 0.638657 0.665576 0.14797
236 1 0.668782 0.542556 0.24029
308 2 0.545683 0.599629 0.221453
314 2 0.615164 0.530519 0.109526
266 1 0.889816 0.506423 0.0788792
191 1 0.914364 0.526303 0.22702
337 2 0.997308 0.53489 0.124688
13 1 0.774612 0.588586 0.150781
224 1 0.929529 0.648649 0.123392
198 1 0.787233 0.748791 0.147649
320 2 0.901304 0.688373 0.239625
35 1 0.220386 0.92726 0.142978
231 1 0.0824471 0.877328 0.0811474
42 1 0.0484914 0.807068 0.221306
25 1 0.202153 0.800757 0.237417
261 1 0.00688925 0.964403 0.216489
302 2 0.248872 0.867259 0.0402848
151 1 0.350736 0.958951 0.0738807
122 1 0.47331 0.829767 0.0822217
22 1 0.326377 0.810659 0.138137
213 1 0.436241 0.91324 0.19973
311 2 0.584881 0.916324 0.0933953
10 1 0.621137 0.982644 0.205999
169 1 0.61853 0.802013 0.0495315
188 1 0.726294 0.880414 0.139161
276 1 0.573393 0.832247 0.190464
334 2 0.829039 0.838467 0.0253341
27 1 0.928376 0.930549 0.0219312
283 1 0.88633 0.860903 0.190257
131 1 0.95946 0.795085 0.0855621
176 1 0.202755 0.202664 0.289673
140 1 0.0730307 0.0953814 0.298853
330 2 0.062763 0.0475215 0.419695
227 1 0.138845 0.132874 0.441879
268 1 0.292681 0.196295 0.40236
350 2 0.260064 0.0695904 0.467436
23 1 0.405819 0.159097 0.303124
127 1 0.411067 0.0997735 0.439288
192 1 0.281358 0.049132 0.33341
259 1 0.516501 0.237096 0.252459
38 1 0.513195 0.0682006 0.254997
318 2 0.540621 0.245375 0.420434
196 1 0.654605 0.23136 0.342785
352 2 0.620128 0.122375 0.274764
124 1 0.550175 0.132843 0.384753
33 1 0.738385 0.098172 0.350544
104 1 0.6757 0.168408 0.472237
250 1 0.602052 0.00257248 0.365761
299 2 0.629033 0.063626 0.463171
246 1 0.982018 0.128008 0.469561
194 1 0.975899 0.22777 0.262024
133 1 0.883245 0.152841 0.346148
219 1 0.944953 0.00972475 0.360615
63 1 0.825391 0.149405 0.492482
301 2 0.923057 0.0159582 0.479573
120 1 0.116042 0.449013 0.390082
300 2 0.188915 0.382161 0.31615
240 1 0.211621 0.303563 0.461271
309 2 0.0478648 0.359864 0.437297
55 1 0.0970096 0.26781 0.379697
218 1 0.419045 0.260899 0.429208
208 1 0.326239 0.328781 0.333348
111 1 0.406404 0.463838 0.3053
237 1 0.258655 0.440684 0.403976
46 1 0.435439 0.415233 0.444339
45 1 0.522298 0.363335 0.334367
333 2 0.569808 0.427646 0.441356
3 1 0.691049 0.378726 0.398178
326 2 0.801942 0.492114 0.259035
87 1 0.954881 0.272229 0.446082
332 2 0.750662 0.353233 0.288377
76 1 0.786967 0.267524 0.441196
97 1 0.982076 0.369228 0.330903
217 1 0.833418 0.416807 0.361449
336 2 0.883326 0.293098 0.352891
234 1 0.96545 0.454382 0.473003
345 2 0.964196 0.496584 0.338695
193 1 0.0672048 0.507169 0.259321
187 1 0.178531 0.659881 0.258253
220 1 0.169153 0.585855 0.408705
157 1 0.0807736 0.726628 0.482158
338 2 0.0995566 0.692612 0.341126
149 1 0.0179722 0.595055 0.415866
164 1 0.3435 0.732698 0.271602
291 2 0.250112 0.735791 0.350489
90 1 0.29333 0.611993 0.356654
238 1 0.453106 0.654571 0.340989
344 2 0.381846 0.5449 0.404609
327 2 0.360785 0.727477 0.415027
277 1 0.377431 0.633774 0.48709
245 1 0.564488 0.519763 0.33306
175 1 0.509247 0.695667 0.484572
152 1 0.60106 0.677831 0.31391
264 1 0.70053 0.531455 0.411054
212 1 0.502006 0.533128 0.493074
28 1 0.683753 0.685635 0.444682
354 2 0.581503 0.608256 0.43616
103 1 0.777084 0.652505 0.322688
177 1 0.873156 0.560588 0.386772
171 1 0.837161 0.653537 0.484661
180 1 0.188779 0.979222 0.427065
1 1 0.140465 0.799785 0.376062
136 1 0.153669 0.942693 0.289552
170 1 0.0454705 0.899323 0.380821
30 1 0.31195 0.907004 0.281826
85 1 0.420718 0.981214 0.355351
48 1 0.435216 0.817865 0.347897
241 1 0.494289 0.842832 0.492105
267 1 0.331456 0.948565 0.482719
282 1 0.278917 0.835347 0.414808
134 1 0.700571 0.773349 0.256092
359 2 0.52696 0.946082 0.285536
114 1 0.699738 0.912854 0.298214
78 1 0.592264 0.838238 0.381623
258 1 0.642408 0.941596 0.490185
141 1 0.980588 0.75786 0.353163
158 1 0.756478 0.834423 0.4528
286 1 0.824245 0.965329 0.292168
74 1 0.845978 0.806252 0.330411
306 2 0.947142 0.887038 0.306558
207 1 0.88699 0.895601 0.451281
226 1 0.777224 0.997437 0.473733
351 2 0.896106 0.759375 0.481169
138 1 0.0893862 0.226306 0.558575
116 1 0.159272 0.0421827 0.576691
53 1 0.157415 0.14998 0.682056
285 1 0.00638553 0.0892984 0.629128
165 1 0.24657 0.166627 0.541201
215 1 0.210711 0.0120074 0.741385
356 2 0.264641 0.108456 0.665955
358 2 0.384836 0.201603 0.546868
145 1 0.466713 0.175124 0.687563
15 1 0.370667 0.0779038 0.61885
304 2 0.48608 0.0804694 0.603623
260 1 0.325783 0.222356 0.654572
155 1 0.470605 0.0127823 0.740333
135 1 0.50131 0.00419053 0.500372
279 1 0.510592 0.182569 0.538222
232 1 0.60833 0.0790309 0.585291
189 1 0.748554 0.0727071 0.603046
137 1 0.630683 0.225106 0.623601
168 1 0.593464 0.0942797 0.731671
278 1 0.874052 0.12161 0.693083
202 1 0.93622 0.230923 0.604173
144 1 0.795395 0.221999 0.624631
88 1 0.7819 0.0116397 0.730767
235 1 0.16791 0.432365 0.544995
209 1 0.0152081 0.364131 0.57638
83 1 0.203556 0.296474 0.608596
243 1 0.0746986 0.295515 0.694206
81 1 0.0642037 0.441669 0.72533
178 1 0.210092 0.430117 0.674098
253 1 0.342962 0.375306 0.708623
101 1 0.335787 0.312393 0.523413
39 1 0.367197 0.466373 0.58738
206 1 0.467039 0.306097 0.611491
126 1 0.629516 0.467661 0.546743
9 1 0.57251 0.319303 0.522583
163 1 0.518712 0.491211 0.641769
284 1 0.608597 0.373107 0.661052
51 1 0.720798 0.338363 0.556629
62 1 0.734984 0.316655 0.720397
272 1 0.833963 0.481284 0.51712
342 2 0.93986 0.43194 0.644635
228 1 0.869091 0.33896 0.537764
181 1 0.893229 0.34663 0.710625
95 1 0.780286 0.437967 0.655238
347 2 0.136595 0.582849 0.548035
148 1 0.243713 0.724636 0.504324
273 1 0.140668 0.579272 0.666446
91 1 0.0902121 0.746897 0.637911
147 1 0.0414073 0.518061 0.582932
36 1 0.25588 0.530151 0.514839
343 2 0.258494 0.635687 0.590789
179 1 0.296896 0.5569 0.674452
125 1 0.434297 0.61672 0.650165
341 2 0.48202 0.692521 0.747971
316 2 0.412504 0.508221 0.705778
61 1 0.268243 0.731668 0.666051
307 2 0.674384 0.529317 0.658678
172 1 0.746047 0.616498 0.593616
11 1 0.676381 0.709321 0.683065
6 1 0.59505 0.623413 0.578891
47 1 0.524957 0.743151 0.643521
184 1 0.563049 0.605617 0.728191
325 2 0.937791 0.559629 0.514389
321 2 0.853254 0.682738 0.627457
160 1 0.760408 0.575774 0.73552
128 1 0.902018 0.551335 0.648103
67 1 0.806251 0.719631 0.734212
269 1 0.968676 0.673959 0.562753
210 1 0.962766 0.703547 0.713854
263 1 0.00128295 0.957241 0.682336
7 1 0.133872 0.865631 0.520508
211 1 0.13602 0.903236 0.679625
262 1 0.0190658 0.96143 0.507253
323 2 0.257587 0.980246 0.590132
99 1 0.423482 0.905543 0.60758
108 1 0.274535 0.863289 0.589607
201 1 0.396807 0.78563 0.709824
274 1 0.387371 0.764313 0.546281
293 2 0.481269 0.865618 0.700713
17 1 0.338601 0.926794 0.735405
357 2 0.648182 0.974716 0.739813
96 1 0.578471 0.909947 0.637559
143 1 0.642671 0.792691 0.549589
329 2 0.731472 0.818068 0.691641
251 1 0.729198 0.915249 0.609436
102 1 0.781659 0.758691 0.583244
65 1 0.968654 0.831211 0.574412
8 1 0.862569 0.991832 0.594024
139 1 0.865959 0.873427 0.702642
167 1 0.0711427 0.0556631 0.77712
156 1 0.118584 0.183892 0.862017
119 1 0.211616 0.0591947 0.883657
50 1 0.228812 0.208866 0.945159
225 1 0.0430209 0.0201997 0.959834
129 1 0.467903 0.190379 0.943475
93 1 0.33925 0.105183 0.930693
26 1 0.393994 0.239997 0.79383
312 2 0.287663 0.177346 0.84221
322 2 0.43535 0.130587 0.84708
182 1 0.342908 0.091131 0.760421
295 2 0.336821 0.00211313 0.847541
31 1 0.629397 0.0840405 0.98493
200 1 0.713001 0.184057 0.759471
204 1 0.503688 0.0430747 0.871295
221 1 0.730912 0.210784 0.945437
20 1 0.60439 0.18205 0.875901
89 1 0.70477 0.0516543 0.844396
340 2 0.830338 0.227892 0.7574
77 1 0.976193 0.205475 0.760918
52 1 0.834516 0.128696 0.857558
360 2 0.753636 0.0704659 0.971642
328 2 0.849888 0.173215 0.99807
183 1 0.934548 0.0205042 0.798378
142 1 0.96453 0.193564 0.928214
153 1 0.244682 0.368709 0.977413
105 1 0.207175 0.266112 0.781401
255 1 0.0721404 0.322992 0.950332
331 2 0.108123 0.329408 0.822041
56 1 0.192754 0.425561 0.845583
54 1 0.0547704 0.496157 0.870447
190 1 0.362183 0.287129 0.928827
313 2 0.306211 0.363936 0.835776
223 1 0.403479 0.43041 0.93394
70 1 0.478177 0.40145 0.773826
294 2 0.289101 0.485926 0.952086
75 1 0.338805 0.482244 0.805431
72 1 0.543775 0.34103 0.902656
86 1 0.56324 0.252778 0.762064
348 2 0.617914 0.360215 0.791153
287 1 0.64453 0.4701 0.762736
154 1 0.714118 0.366492 0.89745
16 1 0.843808 0.293709 0.864254
79 1 0.983216 0.353488 0.836753
49 1 0.889987 0.449729 0.915134
199 1 0.905394 0.47795 0.77118
303 2 0.785914 0.410975 0.784007
315 2 0.152567 0.526078 0.782757
19 1 0.0279559 0.588908 0.756314
84 1 0.13304 0.510281 0.990272
355 2 0.109816 0.61236 0.910163
57 1 0.0247332 0.698439 0.868244
205 1 0.241511 0.58339 0.855582
44 1 0.157246 0.683626 0.774677
40 1 0.410295 0.578277 0.949873
290 2 0.320611 0.675511 0.935603
270 1 0.371318 0.640743 0.778933
82 1 0.378207 0.74798 0.866394
186 1 0.513516 0.732417 0.968141
174 1 0.643765 0.657915 0.964991
66 1 0.508788 0.645571 0.853138
292 2 0.653596 0.582834 0.823508
37 1 0.549551 0.514199 0.889685
41 1 0.742156 0.668267 0.853038
121 1 0.825617 0.626494 0.986241
280 1 0.778825 0.525698 0.870446
32 1 0.917244 0.599121 0.877285
349 2 0.945089 0.674581 0.968285
256 1 0.195436 0.757496 0.924619
24 1 0.177469 0.962805 0.98947
230 1 0.0373362 0.845781 0.936777
68 1 0.117387 0.937417 0.851494
59 1 0.0646301 0.812695 0.781501
4 1 0.228099 0.819621 0.780498
239 1 0.407005 0.965724 0.9493
346 2 0.402052 0.838347 0.957661
254 1 0.301716 0.878625 0.893074
195 1 0.463554 0.864649 0.835312
132 1 0.710437 0.932262 0.997204
353 2 0.616332 0.808215 0.877525
14 1 0.738723 0.762563 0.981489
247 1 0.559278 0.924463 0.975891
106 1 0.582384 0.75863 0.775043
109 1 0.624532 0.923991 0.840079
229 1 0.830076 0.953479 0.88458
159 1 0.881817 0.776693 0.939892
216 1 0.751281 0.831126 0.82279
281 1 0.940071 0.874481 0.830405
ITEM: TIMESTEP
10000
ITEM: NUMBER OF ATOMS
360
ITEM: BOX BOUNDS pp pp pp
0.0000000000000000e+00 6.6943295008216896e+00
0.0000000000000000e+00 6.6943295008216896e+00
0.0000000000000000e+00 6.6943295008216896e+00
ITEM: ATOMS id type xs ys zs
117 1 0.036357 0.22551 0.069729
275 1 0.143325 0.137375 0.151554
261 1 0.0788079 0.0673155 0.0429158
24 1 0.224881 0.107743 0.0250635
130 1 0.194681 0.255221 0.0916635
35 1 0.202437 1.00337 0.153756
162 1 0.30029 0.14326 0.146178
129 1 0.452976 0.0987226 0.144216
23 1 0.361819 -0.00122119 0.225176
5 1 0.319688 0.252973 0.0196208
45 1 0.426721 0.180349 0.272504
12 1 0.559525 0.191574 0.216872
69 1 0.599049 0.0945426 0.0898024
247 1 0.561822 0.00371387 0.199814
146 1 0.737831 0.16716 0.127475
20 1 0.601706 0.230555 0.0581803
98 1 0.885641 0.216447 0.142336
271 1 0.84678 0.08409 0.213147
142 1 0.878921 0.0886102 0.0597344
194 1 0.0168864 0.130268 0.243426
328 2 0.848437 0.205993 0.984262
286 1 0.976604 0.00764261 0.144899
242 1 0.0472277 0.448467 0.117693
214 1 0.18775 0.401241 0.103464
265 1 0.0834075 0.28167 0.239879
34 1 0.154255 0.42306 0.250088
294 2 0.268966 0.486344 0.0575902
297 2 0.325584 0.296563 0.149778
233 1 0.365516 0.392504 0.0866961
268 1 0.256021 0.261943 0.246311
208 1 0.294253 0.465353 0.21404
58 1 0.44895 0.258999 0.114733
298 2 0.500171 0.357899 0.0401182
166 1 0.54723 0.427541 0.949551
123 1 0.538622 0.381598 0.172568
29 1 0.643272 0.409851 0.0633826
115 1 0.671677 0.310653 0.19289
71 1 0.772009 0.298877 0.0421218
317 2 0.00712487 0.336255 0.125307
266 1 0.882729 0.395709 0.0690597
18 1 0.817579 0.33864 0.215653
193 1 0.973124 0.377801 0.23258
112 1 0.175526 0.538315 0.150906
337 2 0.0428665 0.581214 0.0269952
248 1 0.152109 0.750965 0.128196
164 1 0.257071 0.654885 0.180862
187 1 0.0246819 0.506214 0.274253
291 2 0.115653 0.692863 0.245734
150 1 0.322853 0.751183 0.090451
113 1 0.418778 0.683366 0.167021
107 1 0.443549 0.493752 0.243268
75 1 0.362165 0.562092 0.114935
290 2 0.424179 0.61539 0.00915624
205 1 0.247024 0.610578 0.0379394
289 2 0.504734 0.596159 0.161648
152 1 0.598087 0.70527 0.167813
121 1 0.674073 0.592927 0.0927097
334 2 0.716526 0.722713 0.122077
236 1 0.720141 0.617174 0.232512
66 1 0.520175 0.507343 0.0767706
92 1 0.0539603 0.634099 0.148024
177 1 0.755649 0.46128 0.16488
191 1 0.934749 0.545563 0.131313
339 2 0.856023 0.631191 0.12554
319 2 0.916069 0.59179 0.982989
131 1 0.821077 0.540263 0.0393883
174 1 0.79746 0.693968 0.0291691
257 1 0.11339 0.831741 0.246582
231 1 0.0980358 0.926349 0.0646214
346 2 0.210781 0.982588 0.0216105
306 2 0.0104121 0.894432 0.230353
320 2 0.0364808 0.797589 0.104715
230 1 0.212174 0.850293 0.0252871
22 1 0.27859 0.874211 0.181918
213 1 0.488564 0.983462 0.0469626
308 2 0.511744 0.760789 0.230787
151 1 0.338196 0.988822 0.0747857
122 1 0.422307 0.84928 0.153325
359 2 0.528047 0.861023 0.0305273
198 1 0.705756 0.792551 0.241411
188 1 0.724295 0.994843 0.160149
114 1 0.579282 0.857195 0.18155
132 1 0.763204 0.852869 0.11485
169 1 0.644418 0.765332 0.0338829
335 2 0.857413 0.967594 0.113159
134 1 0.836203 0.745014 0.183343
74 1 0.82364 0.923714 0.240341
170 1 0.932849 0.855824 0.1459
283 1 0.865296 0.819509 0.00687199
136 1 0.306435 0.113447 0.30006
227 1 0.100309 0.0141291 0.404764
55 1 0.151148 0.141381 0.308014
267 1 0.254554 0.111574 0.437474
176 1 0.0986215 0.982556 0.25048
138 1 0.111777 0.175051 0.479439
85 1 0.414833 0.135001 0.43315
259 1 0.507018 0.0303176 0.474869
332 2 0.44335 0.0619406 0.304416
358 2 0.342637 0.205976 0.516711
185 1 0.696487 0.0931899 0.289683
196 1 0.548935 0.0838334 0.34443
76 1 0.68793 0.142791 0.430821
10 1 0.797136 0.988684 0.369475
140 1 0.980237 0.118087 0.402699
133 1 0.801083 0.21475 0.284932
330 2 0.869192 0.0920439 0.34404
226 1 0.846739 0.113241 0.477083
309 2 0.0463987 0.228066 0.376568
8 1 0.909897 0.26475 0.467075
300 2 0.274348 0.371118 0.30569
97 1 0.0441618 0.377113 0.367734
240 1 0.170214 0.273559 0.376697
120 1 0.195839 0.43937 0.401246
347 2 0.0793138 0.46879 0.505235
127 1 0.337778 0.271787 0.379688
111 1 0.392782 0.338357 0.247077
218 1 0.481292 0.488643 0.480489
333 2 0.450194 0.37233 0.414672
237 1 0.357874 0.465077 0.373802
64 1 0.521131 0.2704 0.338303
279 1 0.464097 0.281306 0.487526
101 1 0.359374 0.391048 0.513641
80 1 0.703343 0.439799 0.330987
2 1 0.675125 0.270044 0.348159
9 1 0.537458 0.42457 0.333931
307 2 0.686097 0.474407 0.451437
3 1 0.745289 0.29971 0.502933
87 1 0.947882 0.24921 0.311227
217 1 0.814356 0.340625 0.36909
345 2 0.924836 0.388892 0.364295
149 1 0.858231 0.473737 0.29138
325 2 0.812884 0.4365 0.438241
234 1 0.968784 0.41104 0.514017
324 2 0.265426 0.523088 0.323257
220 1 0.16258 0.574753 0.297536
157 1 0.0139255 0.546861 0.421572
141 1 0.117171 0.696856 0.380579
338 2 0.00865142 0.638622 0.310574
25 1 0.237796 0.727524 0.309381
197 1 0.370525 0.62293 0.293069
110 1 0.537782 0.641689 0.290404
90 1 0.271444 0.59504 0.420574
238 1 0.458243 0.643375 0.432687
314 2 0.461439 0.537108 0.360485
327 2 0.337761 0.659862 0.513628
30 1 0.377907 0.78277 0.292096
60 1 0.598784 0.520279 0.214728
264 1 0.785817 0.560563 0.403533
354 2 0.582446 0.693533 0.433496
245 1 0.60459 0.556463 0.409704
28 1 0.499236 0.719375 0.550318
103 1 0.688349 0.673773 0.361392
13 1 0.992974 0.744418 0.230157
222 1 0.903188 0.62001 0.256321
171 1 0.90836 0.665205 0.399641
147 1 0.878939 0.554364 0.507087
148 1 0.161069 0.847586 0.382659
1 1 0.242075 0.972475 0.321831
262 1 0.0158546 0.878747 0.371165
296 2 0.250368 0.851225 0.3033
38 1 0.47409 0.920027 0.29235
282 1 0.30525 0.835085 0.415491
192 1 0.368037 0.993866 0.406285
78 1 0.466398 0.83675 0.418548
33 1 0.647376 0.998107 0.464032
352 2 0.562259 0.936149 0.400369
48 1 0.579425 0.783724 0.332101
161 1 0.65734 0.925909 0.303897
158 1 0.62041 0.808524 0.471682
250 1 0.739852 0.82064 0.382973
351 2 0.8073 0.696936 0.298034
219 1 0.924715 0.981531 0.469354
329 2 0.750289 0.759725 0.594902
42 1 0.945045 0.994008 0.296723
102 1 0.881536 0.802629 0.30901
350 2 0.199058 0.136943 0.574787
53 1 0.141791 0.0135658 0.656438
243 1 0.129768 0.238433 0.622168
246 1 0.0316028 0.0301769 0.544425
305 2 0.127213 0.35547 0.745107
165 1 0.235566 0.272049 0.515372
15 1 0.330966 0.0852306 0.561724
232 1 0.467121 0.966978 0.664762
116 1 0.290131 0.97756 0.656148
119 1 0.266046 0.183917 0.665418
182 1 0.415267 0.124849 0.696181
124 1 0.478485 0.154009 0.57153
145 1 0.555959 0.274431 0.683008
299 2 0.760635 0.0319447 0.521829
104 1 0.580325 0.0568475 0.608261
51 1 0.629863 0.181684 0.558694
318 2 0.564459 0.288607 0.55373
89 1 0.679702 0.166113 0.709779
168 1 0.570958 0.0602712 0.758739
278 1 0.0364087 0.123044 0.722078
63 1 0.773307 0.163149 0.601435
202 1 0.956782 0.160497 0.571192
88 1 0.856123 0.135319 0.731835
263 1 0.86528 0.0201663 0.596515
235 1 0.0791789 0.323658 0.495217
83 1 0.235207 0.322945 0.669056
273 1 0.206076 0.428418 0.5514
340 2 0.986448 0.289405 0.572122
209 1 0.0695642 0.402866 0.645689
91 1 0.0259292 0.54445 0.597802
206 1 0.324578 0.446727 0.648856
105 1 0.389109 0.279979 0.63019
260 1 0.50244 0.391 0.598658
284 1 0.665949 0.352012 0.611911
126 1 0.598544 0.380793 0.456585
163 1 0.622136 0.473907 0.707487
95 1 0.775729 0.424217 0.701788
212 1 0.615284 0.524708 0.55992
272 1 0.757387 0.464853 0.546033
137 1 0.860623 0.279637 0.65359
336 2 0.84625 0.372805 0.547331
228 1 0.918114 0.422348 0.654081
144 1 0.999029 0.278717 0.705745
36 1 0.133283 0.588998 0.499395
44 1 0.140835 0.619786 0.748407
343 2 0.164046 0.530098 0.606309
274 1 0.121146 0.718061 0.600187
179 1 0.239691 0.621085 0.595156
277 1 0.22456 0.72507 0.482298
39 1 0.469202 0.530335 0.64229
46 1 0.355729 0.542009 0.542955
70 1 0.300093 0.580209 0.733507
125 1 0.383181 0.665568 0.64215
96 1 0.457701 0.729803 0.764034
344 2 0.497468 0.592748 0.551859
172 1 0.646331 0.677524 0.541774
6 1 0.560011 0.647675 0.674265
160 1 0.711559 0.596904 0.658874
342 2 0.745089 0.606767 0.504773
321 2 0.991595 0.758036 0.394677
269 1 0.986362 0.672864 0.526494
128 1 0.786846 0.716009 0.471901
199 1 0.855407 0.563781 0.656508
67 1 0.830699 0.66287 0.768604
281 1 0.978294 0.670486 0.711943
11 1 0.86 0.708106 0.623887
180 1 0.224313 0.970745 0.503566
65 1 0.90552 0.812313 0.465818
285 1 0.063007 0.878602 0.521902
167 1 0.998015 0.954941 0.687809
211 1 0.990218 0.791756 0.633463
323 2 0.121054 0.897684 0.682781
108 1 0.171265 0.786301 0.730933
293 2 0.276144 0.732435 0.646521
7 1 0.202921 0.845211 0.599508
175 1 0.343329 0.784272 0.555956
241 1 0.378039 0.922961 0.533972
99 1 0.358281 0.843444 0.692601
304 2 0.46888 0.786111 0.648831
189 1 0.717196 0.0148434 0.661996
47 1 0.634116 0.743087 0.816546
357 2 0.597699 0.946248 0.658077
135 1 0.538118 0.907309 0.543419
258 1 0.676408 0.888934 0.588157
143 1 0.594466 0.790255 0.663458
109 1 0.536258 0.878318 0.767652
251 1 0.73706 0.785227 0.709099
301 2 0.953063 0.91259 0.573012
207 1 0.792815 0.922614 0.497987
210 1 0.848962 0.86042 0.619164
244 1 0.131389 0.194373 0.951454
225 1 0.0558753 0.29438 0.852354
156 1 0.168818 0.238047 0.774552
68 1 0.167028 0.0790213 0.786451
249 1 0.291353 0.0840424 0.88073
50 1 0.305505 0.224894 0.857982
203 1 0.39022 0.121286 0.998085
356 2 0.290113 0.094665 0.749882
93 1 0.457401 0.0887117 0.867078
312 2 0.346563 0.272192 0.752507
310 2 0.516366 0.126972 0.997839
155 1 0.369657 0.982552 0.79063
86 1 0.596198 0.199746 0.86422
322 2 0.541665 0.151652 0.679198
221 1 0.711877 0.166427 0.983838
204 1 0.608371 0.0487594 0.950806
229 1 0.710418 0.0627634 0.835538
43 1 0.959294 0.0300107 0.848743
77 1 0.983436 0.139447 0.959672
200 1 0.936159 0.207985 0.83679
52 1 0.841837 0.1059 0.895589
360 2 0.0540107 0.145301 0.846056
315 2 0.00507504 0.540193 0.742082
84 1 0.145688 0.500432 0.99877
255 1 0.0838813 0.344427 1.00067
331 2 0.218492 0.292589 0.918057
54 1 0.150025 0.40812 0.874169
79 1 0.0158269 0.430846 0.804355
153 1 0.268865 0.384617 0.97058
26 1 0.451056 0.23677 0.795165
94 1 0.476677 0.240442 0.958015
56 1 0.286237 0.371343 0.799591
253 1 0.433855 0.386147 0.733349
190 1 0.405588 0.349627 0.896317
313 2 0.389458 0.477581 0.84269
81 1 0.268786 0.502013 0.857084
118 1 0.647905 0.314636 0.949478
72 1 0.555187 0.350491 0.817586
287 1 0.710267 0.422736 0.833283
154 1 0.720616 0.29562 0.749963
100 1 0.936125 0.321116 0.949059
303 2 0.754 0.546778 0.775146
326 2 0.759141 0.431798 0.0183684
173 1 0.776712 0.255508 0.887325
62 1 0.876937 0.336257 0.798702
288 1 0.972866 0.480533 0.965025
16 1 0.824007 0.437189 0.918191
49 1 0.095494 0.683033 0.978347
178 1 0.175863 0.469527 0.728038
61 1 0.205393 0.645388 0.872219
19 1 0.0869154 0.544921 0.868055
355 2 0.232421 0.709199 0.977431
57 1 0.0601384 0.716054 0.838437
186 1 0.49676 0.745194 0.0578237
348 2 0.445222 0.606742 0.752117
40 1 0.411872 0.494078 0.964943
201 1 0.294619 0.723391 0.78146
256 1 0.347386 0.713426 0.94155
316 2 0.316114 0.581309 0.935869
270 1 0.423302 0.604952 0.870742
37 1 0.673692 0.513865 0.955887
223 1 0.53539 0.507976 0.825719
341 2 0.543467 0.66301 0.831152
184 1 0.646076 0.596079 0.826552
292 2 0.635253 0.673146 0.91892
106 1 0.555673 0.617207 0.983429
224 1 0.942129 0.696613 0.0542237
181 1 0.867541 0.491405 0.786128
41 1 0.788642 0.59675 0.892015
280 1 0.948366 0.600806 0.853511
32 1 0.925769 0.746981 0.890844
302 2 0.0657344 1.00369 0.786654
252 1 0.0239036 0.822206 0.958611
4 1 0.180359 0.815656 0.88519
59 1 0.0535181 0.858027 0.792808
254 1 0.283884 0.942707 0.932697
27 1 0.119344 0.984299 0.92386
215 1 0.213904 0.946195 0.78384
295 2 0.399618 -0.00151254 0.947941
21 1 0.38966 0.858739 0.995491
239 1 0.493724 0.944416 0.894939
17 1 0.37258 0.84037 0.853086
276 1 0.632184 0.931766 0.058235
31 1 0.759654 0.00448919 0.000128633
82 1 0.512867 0.776317 0.905222
311 2 0.743742 0.852483 0.975819
195 1 0.637617 0.872599 0.908536
14 1 0.763154 0.747263 0.875691
216 1 0.689458 0.910132 0.774283
353 2 0.6033 0.973396 0.843893
73 1 0.941976 0.949947 0.991275
183 1 0.861174 0.967785 0.762474
349 2 0.95273 0.89746 0.866854
139 1 0.898012 0.817 0.763172
159 1 0.808498 0.904824 0.890336
ITEM: TIMESTEP
20000
ITEM: NUMBER OF ATOMS
360
ITEM: BOX BOUNDS pp pp pp
0.0000000000000000e+00 6.6943295008216896e+00
0.0000000000000000e+00 6.6943295008216896e+00
0.0000000000000000e+00 6.6943295008216896e+00
ITEM: ATOMS id type xs ys zs
261 1 0.0999543 0.166473 0.147408
27 1 0.0761724 0.0763285 0.0178365
255 1 0.984276 0.213978 0.0678247
5 1 0.231953 0.0696441 0.96933
43 1 0.0771359 0.994526 0.161881
35 1 0.205131 0.0892417 0.223872
162 1 0.263152 0.132362 0.101602
129 1 0.413426 0.0583903 0.0202309
136 1 0.313197 0.99039 0.0847497
12 1 0.406596 0.135847 0.153726
58 1 0.465039 0.214086 0.0458563
297 2 0.363081 0.25563 0.140554
23 1 0.446077 0.972671 0.137939
69 1 0.554045 0.085415 0.0846291
31 1 0.705398 0.121313 0.144002
146 1 0.594382 0.249208 0.13009
173 1 0.716317 0.265283 0.0272395
286 1 0.942032 0.0685292 0.11057
142 1 0.835549 0.210485 0.0980059
73 1 0.807273 0.0404946 0.0519598
214 1 0.112245 0.319504 0.137624
84 1 0.202105 0.468823 0.15227
92 1 0.0655218 0.438065 0.0557387
300 2 0.195007 0.250788 0.193921
266 1 0.0496595 0.40732 0.253201
309 2 0.00927153 0.291894 0.247021
208 1 0.335909 0.509138 0.231698
333 2 0.465511 0.341925 0.108829
107 1 0.419609 0.475075 0.0910085
40 1 0.253248 0.291832 0.0804792
45 1 0.329637 0.379143 0.170379
197 1 0.477721 0.434578 0.266557
123 1 0.556494 0.418166 0.147843
71 1 0.748172 0.321885 0.182064
20 1 0.6966 0.42705 0.0577532
29 1 0.679498 0.473427 0.213729
308 2 0.572248 0.540732 0.22375
117 1 0.960874 0.350894 0.148116
328 2 0.818436 0.337806 0.0606369
177 1 0.834431 0.427254 0.159507
326 2 0.814013 0.506679 0.0541601
87 1 0.866727 0.291754 0.270464
16 1 0.901706 0.447623 0.00374802
248 1 0.112563 0.592971 0.121237
13 1 0.105436 0.737878 0.155833
150 1 0.217214 0.703537 0.0638261
49 1 0.969017 0.700204 0.0199612
75 1 0.321547 0.584012 0.0843104
164 1 0.34483 0.741515 0.195186
113 1 0.485836 0.676773 0.0337582
238 1 0.225241 0.604313 0.219749
277 1 0.460354 0.584991 0.173969
296 2 0.352483 0.730182 0.0545278
66 1 0.571513 0.541167 0.0708182
236 1 0.658646 0.596197 0.304169
292 2 0.611815 0.689017 0.0620594
134 1 0.740379 0.696744 0.17414
174 1 0.682454 0.6042 0.980431
186 1 0.594294 0.661236 0.187447
338 2 0.972708 0.645166 0.13684
224 1 0.862588 0.751541 0.129221
121 1 0.823441 0.653485 0.0223024
191 1 0.95116 0.526114 0.151648
149 1 0.7239 0.567972 0.112855
320 2 0.735397 0.73433 0.0395837
24 1 0.165027 0.930867 0.0412888
25 1 0.21023 0.751075 0.271568
231 1 0.0256466 0.834299 0.061408
291 2 0.161333 0.0571697 0.0990833
151 1 0.298039 0.844856 0.0955035
346 2 0.0106833 0.974941 0.0603059
170 1 0.0597483 0.867755 0.244903
359 2 0.481017 0.710867 0.158475
22 1 0.449975 0.816591 0.104133
122 1 0.550376 0.840841 0.2072
213 1 0.528861 0.933988 0.0273263
159 1 0.658442 0.0236665 0.99632
188 1 0.80369 0.985046 0.21646
152 1 0.657755 0.801166 0.0982708
276 1 0.651331 0.961634 0.156194
334 2 0.667557 0.892237 0.0123788
339 2 0.976987 0.781104 0.190405
132 1 0.782552 0.890042 0.0669562
74 1 0.936634 0.899485 0.15921
355 2 0.915613 0.827506 0.0263664
198 1 0.762092 0.849167 0.215572
335 2 0.0465792 0.130784 0.266679
55 1 0.0223022 0.152857 0.389467
267 1 0.200959 0.155001 0.394184
262 1 0.0950324 0.014983 0.30476
34 1 0.122972 0.230637 0.288596
350 2 0.231107 0.0861224 0.539549
268 1 0.300626 0.225902 0.258801
196 1 0.438204 0.116975 0.321776
192 1 0.344816 0.0792599 0.448218
358 2 0.309514 0.109898 0.316546
1 1 0.34129 0.0136617 0.253838
76 1 0.474017 0.146127 0.487787
332 2 0.384508 0.951422 0.366363
185 1 0.558084 0.14285 0.230416
64 1 0.549047 0.208651 0.361145
18 1 0.72541 0.227296 0.311079
161 1 0.567001 0.0682933 0.40529
63 1 0.699673 0.168313 0.443091
271 1 0.672245 0.0550394 0.291915
275 1 0.957823 0.194241 0.208453
98 1 0.828904 0.130215 0.252582
140 1 0.934435 0.0286504 0.410355
299 2 0.780545 0.0893583 0.357606
194 1 0.94517 0.0375553 0.260436
133 1 0.875385 0.167174 0.387094
242 1 0.209233 0.353368 0.260913
15 1 0.240609 0.295998 0.394509
347 2 0.12423 0.340027 0.357588
235 1 0.139719 0.417571 0.533569
218 1 0.212355 0.436254 0.392641
187 1 0.0664165 0.459002 0.401014
85 1 0.477103 0.268573 0.214587
127 1 0.33784 0.37643 0.328431
279 1 0.392267 0.240145 0.386921
206 1 0.379118 0.357608 0.485143
237 1 0.501862 0.368039 0.399991
115 1 0.602332 0.323867 0.26833
9 1 0.65596 0.317767 0.414919
80 1 0.766352 0.392823 0.324768
212 1 0.741475 0.454531 0.460439
97 1 0.980227 0.392304 0.498348
265 1 0.975887 0.304155 0.368092
193 1 0.920197 0.46135 0.313167
3 1 0.818058 0.301852 0.434132
307 2 0.877742 0.406772 0.42611
294 2 0.226687 0.481205 0.280337
222 1 0.0511877 0.588465 0.261981
112 1 0.0636638 0.74989 0.352867
120 1 0.154401 0.605165 0.41098
220 1 0.0604521 0.70593 0.513866
325 2 0.953452 0.51262 0.469739
343 2 0.185541 0.530733 0.507131
101 1 0.492951 0.563212 0.335286
90 1 0.291783 0.562556 0.356313
354 2 0.349341 0.648626 0.26387
46 1 0.397686 0.49406 0.430918
78 1 0.283767 0.635368 0.479183
28 1 0.433248 0.70156 0.46332
314 2 0.686416 0.560917 0.432865
60 1 0.609552 0.46329 0.354818
245 1 0.568572 0.674648 0.424957
110 1 0.485003 0.70586 0.280794
103 1 0.763072 0.702989 0.32555
172 1 0.727434 0.692787 0.467057
264 1 0.801116 0.549123 0.254951
351 2 0.845495 0.611987 0.139182
157 1 0.00388074 0.60262 0.398812
171 1 0.913625 0.659465 0.255339
128 1 0.8261 0.565227 0.402578
306 2 0.256033 0.861226 0.329992
257 1 0.213457 0.930389 0.22058
176 1 0.252231 0.986092 0.390068
141 1 0.217451 0.767431 0.436081
269 1 0.133301 0.886156 0.374937
227 1 0.130317 0.00773206 0.479814
219 1 0.13927 0.866056 0.546899
30 1 0.344597 0.745619 0.352205
282 1 0.388484 0.872257 0.246082
148 1 0.340712 0.857453 0.443554
38 1 0.513167 0.827494 0.368989
247 1 0.500509 0.973 0.289975
114 1 0.631719 0.757204 0.299769
352 2 0.576272 0.935627 0.428449
48 1 0.641196 0.821865 0.450432
10 1 0.661267 0.908499 0.316281
33 1 0.676539 0.984918 0.468306
42 1 0.99549 0.87857 0.424683
250 1 0.811514 0.82996 0.406036
321 2 0.922939 0.916858 0.329143
226 1 0.795713 0.974812 0.380227