LAMMPS (15 Sep 2022)
OMP_NUM_THREADS environment is not set. Defaulting to 1 thread. (src/comm.cpp:98)
  using 1 OpenMP thread(s) per MPI task
Reading restart file ...
  restart file = 15 Sep 2022, LAMMPS = 15 Sep 2022
WARNING: Restart file used different # of processors: 1 vs. 4 (src/read_restart.cpp:659)
  restoring atom style atomic from restart
  orthogonal box = (0 0 0) to (6.6943295 6.6943295 6.6943295)
  1 by 2 by 2 MPI processor grid
  restoring pair style lj/cut from restart
  360 atoms
  read_restart CPU = 0.041 seconds
Setting up equilibration run
Resetting global fix info from restart file:
  fix style: nvt, fix ID: 1
Generated 0 of 1 mixed pair_coeff terms from geometric mixing rule
All restart file global fix info was re-assigned
Neighbor list info ...
  update: every = 1 steps, delay = 20 steps, check = yes
  max neighbors/atom: 2000, page size: 100000
  master list distance cutoff = 3
  ghost atom cutoff = 3
  binsize = 1.5, bins = 5 5 5
  1 neighbor lists, perpetual/occasional/extra = 1 0 0
  (1) pair lj/cut, perpetual
      attributes: half, newton on
      pair build: half/bin/atomonly/newton
      stencil: half/bin/3d
      bin: standard
Setting up Verlet run ...
  Unit style    : lj
  Current step  : 0
  Time step     : 0.002
Per MPI rank memory allocation (min/avg/max) = 3.137 | 3.138 | 3.138 Mbytes
   Step          Temp          E_pair         E_mol          TotEng         Press     
         0   1.3843166     -5.4023665      0             -3.3316597      14.179666    
      1000   1.5410538     -5.2413152      0             -2.9361556      15.102784    
      2000   1.6050708     -5.1565424      0             -2.755624       15.99753     
      2500   1.5240578     -5.2176959      0             -2.9379596      15.265001    
Loop time of 0.283992 on 4 procs for 2500 steps with 360 atoms

Performance: 1521170.267 tau/day, 8803.069 timesteps/s, 3.169 Matom-step/s
99.2% CPU use with 4 MPI tasks x 1 OpenMP threads

MPI task timing breakdown:
Section |  min time  |  avg time  |  max time  |%varavg| %total
---------------------------------------------------------------
Pair    | 0.13006    | 0.13284    | 0.13603    |   0.6 | 46.78
Neigh   | 0.014127   | 0.014537   | 0.015083   |   0.3 |  5.12
Comm    | 0.092492   | 0.099084   | 0.10338    |   1.3 | 34.89
Output  | 0.015716   | 0.019751   | 0.026732   |   3.0 |  6.95
Modify  | 0.010067   | 0.011866   | 0.013318   |   1.1 |  4.18
Other   |            | 0.005912   |            |       |  2.08

Nlocal:             90 ave          95 max          83 min
Histogram: 1 0 0 0 0 1 0 0 1 1
Nghost:           1234 ave        1247 max        1215 min
Histogram: 1 0 0 0 1 0 0 0 0 2
Neighs:           5201 ave        5434 max        4756 min
Histogram: 1 0 0 0 0 0 0 1 1 1

Total # of neighbors = 20804
Ave neighs/atom = 57.788889
Neighbor list builds = 85
Dangerous builds = 0
Total wall time: 0:00:00
LAMMPS (15 Sep 2022)
OMP_NUM_THREADS environment is not set. Defaulting to 1 thread. (src/comm.cpp:98)
  using 1 OpenMP thread(s) per MPI task
Reading restart file ...
  restart file = 15 Sep 2022, LAMMPS = 15 Sep 2022
WARNING: Restart file used different # of processors: 1 vs. 4 (src/read_restart.cpp:659)
  restoring atom style atomic from restart
  orthogonal box = (0 0 0) to (6.6943295 6.6943295 6.6943295)
  1 by 2 by 2 MPI processor grid
  restoring pair style lj/cut from restart
  360 atoms
  read_restart CPU = 0.027 seconds
Setting up equilibration run
Resetting global fix info from restart file:
  fix style: nvt, fix ID: 1
Generated 0 of 1 mixed pair_coeff terms from geometric mixing rule
All restart file global fix info was re-assigned
Neighbor list info ...
  update: every = 1 steps, delay = 20 steps, check = yes
  max neighbors/atom: 2000, page size: 100000
  master list distance cutoff = 3
  ghost atom cutoff = 3
  binsize = 1.5, bins = 5 5 5
  1 neighbor lists, perpetual/occasional/extra = 1 0 0
  (1) pair lj/cut, perpetual
      attributes: half, newton on
      pair build: half/bin/atomonly/newton
      stencil: half/bin/3d
      bin: standard
Setting up Verlet run ...
  Unit style    : lj
  Current step  : 0
  Time step     : 0.002
Per MPI rank memory allocation (min/avg/max) = 3.138 | 3.138 | 3.138 Mbytes
   Step          Temp          E_pair         E_mol          TotEng         Press     
         0   1.0275907     -6.0609184      0             -4.5238139      9.4587088    
      2000   1.0076552     -6.0262401      0             -4.5189558      9.7683739    
      4000   1.0187685     -5.8911732      0             -4.3672653      10.824304    
      6000   1.057714      -6.0083892      0             -4.4262253      10.290338    
      8000   1.0236044     -6.1551477      0             -4.6240061      9.1423065    
     10000   0.97750683    -6.040579       0             -4.5783917      9.6927975    
     12000   1.0090014     -6.0272041      0             -4.5179063      9.6487815    
     12500   0.98742332    -6.1122467      0             -4.635226       9.3053631    
Loop time of 1.31775 on 4 procs for 12500 steps with 360 atoms

Performance: 1639159.026 tau/day, 9485.874 timesteps/s, 3.415 Matom-step/s
99.5% CPU use with 4 MPI tasks x 1 OpenMP threads

MPI task timing breakdown:
Section |  min time  |  avg time  |  max time  |%varavg| %total
---------------------------------------------------------------
Pair    | 0.62955    | 0.65686    | 0.68227    |   2.5 | 49.85
Neigh   | 0.056054   | 0.058192   | 0.061192   |   0.8 |  4.42
Comm    | 0.46733    | 0.48857    | 0.5132     |   2.4 | 37.08
Output  | 0.024581   | 0.029259   | 0.037969   |   3.0 |  2.22
Modify  | 0.04379    | 0.059563   | 0.073474   |   4.9 |  4.52
Other   |            | 0.02531    |            |       |  1.92

Nlocal:             90 ave          93 max          83 min
Histogram: 1 0 0 0 0 0 0 0 1 2
Nghost:        1232.75 ave        1241 max        1224 min
Histogram: 1 1 0 0 0 0 0 0 1 1
Neighs:        5185.75 ave        5366 max        4759 min
Histogram: 1 0 0 0 0 0 0 0 1 2

Total # of neighbors = 20743
Ave neighs/atom = 57.619444
Neighbor list builds = 339
Dangerous builds = 0
Total wall time: 0:00:01
LAMMPS (15 Sep 2022)
OMP_NUM_THREADS environment is not set. Defaulting to 1 thread. (src/comm.cpp:98)
  using 1 OpenMP thread(s) per MPI task
Reading restart file ...
  restart file = 15 Sep 2022, LAMMPS = 15 Sep 2022
WARNING: Restart file used different # of processors: 1 vs. 4 (src/read_restart.cpp:659)
  restoring atom style atomic from restart
  orthogonal box = (0 0 0) to (6.6943295 6.6943295 6.6943295)
  1 by 2 by 2 MPI processor grid
  restoring pair style lj/cut from restart
  360 atoms
  read_restart CPU = 0.035 seconds
Setting up equilibration run
Resetting global fix info from restart file:
  fix style: nvt, fix ID: 1
Generated 0 of 1 mixed pair_coeff terms from geometric mixing rule
All restart file global fix info was re-assigned
Neighbor list info ...
  update: every = 1 steps, delay = 25 steps, check = yes
  max neighbors/atom: 2000, page size: 100000
  master list distance cutoff = 3
  ghost atom cutoff = 3
  binsize = 1.5, bins = 5 5 5
  1 neighbor lists, perpetual/occasional/extra = 1 0 0
  (1) pair lj/cut, perpetual
      attributes: half, newton on
      pair build: half/bin/atomonly/newton
      stencil: half/bin/3d
      bin: standard
Setting up Verlet run ...
  Unit style    : lj
  Current step  : 0
  Time step     : 0.002
Per MPI rank memory allocation (min/avg/max) = 3.137 | 3.138 | 3.139 Mbytes
   Step          Temp          E_pair         E_mol          TotEng         Press     
         0   0.83643488    -6.074882       0             -4.8237148      9.3112958    
      5000   0.90625602    -6.2070559      0             -4.8514479      8.5786528    
     10000   0.90049186    -6.2646412      0             -4.9176554      8.2176283    
     15000   0.8056876     -6.0625674      0             -4.8573931      9.3052111    
     20000   0.88179876    -6.1101281      0             -4.7911042      9.1784323    
     25000   0.95279522    -6.2139658      0             -4.7887429      8.6823081    
     30000   0.90260889    -6.2473119      0             -4.8971594      8.3156027    
     35000   0.92800584    -6.1422515      0             -4.7541095      9.0497289    
     37500   0.97047354    -6.1764868      0             -4.7248201      8.8722055    
Loop time of 3.86637 on 4 procs for 37500 steps with 360 atoms

Performance: 1675989.283 tau/day, 9699.012 timesteps/s, 3.492 Matom-step/s
99.5% CPU use with 4 MPI tasks x 1 OpenMP threads

MPI task timing breakdown:
Section |  min time  |  avg time  |  max time  |%varavg| %total
---------------------------------------------------------------
Pair    | 1.9255     | 1.9658     | 2.0154     |   2.5 | 50.84
Neigh   | 0.16137    | 0.16538    | 0.16874    |   0.6 |  4.28
Comm    | 1.4304     | 1.4569     | 1.4813     |   1.5 | 37.68
Output  | 0.035092   | 0.040615   | 0.051172   |   3.1 |  1.05
Modify  | 0.15082    | 0.17778    | 0.20428    |   5.4 |  4.60
Other   |            | 0.05986    |            |       |  1.55

Nlocal:             90 ave          96 max          84 min
Histogram: 1 0 0 1 0 0 1 0 0 1
Nghost:        1250.25 ave        1285 max        1215 min
Histogram: 1 0 1 0 0 0 0 1 0 1
Neighs:         5188.5 ave        5425 max        4946 min
Histogram: 1 0 0 1 0 0 0 1 0 1

Total # of neighbors = 20754
Ave neighs/atom = 57.65
Neighbor list builds = 962
Dangerous builds = 0
Total wall time: 0:00:03
LAMMPS (15 Sep 2022)
OMP_NUM_THREADS environment is not set. Defaulting to 1 thread. (src/comm.cpp:98)
  using 1 OpenMP thread(s) per MPI task
Reading restart file ...
  restart file = 15 Sep 2022, LAMMPS = 15 Sep 2022
WARNING: Restart file used different # of processors: 1 vs. 4 (src/read_restart.cpp:659)
  restoring atom style atomic from restart
  orthogonal box = (0 0 0) to (6.6943295 6.6943295 6.6943295)
  1 by 2 by 2 MPI processor grid
  restoring pair style lj/cut from restart
  360 atoms
  read_restart CPU = 0.042 seconds
Setting up equilibration run
Resetting global fix info from restart file:
  fix style: nvt, fix ID: 1
Generated 0 of 1 mixed pair_coeff terms from geometric mixing rule
All restart file global fix info was re-assigned
Neighbor list info ...
  update: every = 1 steps, delay = 25 steps, check = yes
  max neighbors/atom: 2000, page size: 100000
  master list distance cutoff = 3
  ghost atom cutoff = 3
  binsize = 1.5, bins = 5 5 5
  1 neighbor lists, perpetual/occasional/extra = 1 0 0
  (1) pair lj/cut, perpetual
      attributes: half, newton on
      pair build: half/bin/atomonly/newton
      stencil: half/bin/3d
      bin: standard
Setting up Verlet run ...
  Unit style    : lj
  Current step  : 0
  Time step     : 0.002
Per MPI rank memory allocation (min/avg/max) = 3.138 | 3.138 | 3.139 Mbytes
   Step          Temp          E_pair         E_mol          TotEng         Press     
         0   0.78383585    -6.4405523      0             -5.2680645      6.7911043    
      5000   0.85189283    -6.4010198      0             -5.1267301      7.2647947    
     10000   0.83890546    -6.3910734      0             -5.1362106      7.2992692    
     15000   0.79971058    -6.511293       0             -5.3150593      6.424332     
     20000   0.8123934     -6.3644168      0             -5.1492117      7.5187075    
     25000   0.81730479    -6.2750762      0             -5.0525245      7.946784     
     30000   0.84133802    -6.3560629      0             -5.0975614      7.5667653    
     35000   0.84630375    -6.39093        0             -5.1250007      7.4477615    
     37500   0.77873454    -6.2357502      0             -5.0708931      8.1816742    
Loop time of 3.79504 on 4 procs for 37500 steps with 360 atoms

Performance: 1707491.351 tau/day, 9881.316 timesteps/s, 3.557 Matom-step/s
99.6% CPU use with 4 MPI tasks x 1 OpenMP threads

MPI task timing breakdown:
Section |  min time  |  avg time  |  max time  |%varavg| %total
---------------------------------------------------------------
Pair    | 1.9021     | 1.937      | 1.965      |   1.7 | 51.04
Neigh   | 0.15064    | 0.15255    | 0.15476    |   0.4 |  4.02
Comm    | 1.4098     | 1.4254     | 1.4449     |   1.1 | 37.56
Output  | 0.034993   | 0.040579   | 0.05099    |   3.1 |  1.07
Modify  | 0.15128    | 0.17633    | 0.1999     |   5.2 |  4.65
Other   |            | 0.06327    |            |       |  1.67

Nlocal:             90 ave          92 max          88 min
Histogram: 1 0 1 0 0 0 0 1 0 1
Nghost:         1246.5 ave        1259 max        1233 min
Histogram: 1 0 0 0 1 0 1 0 0 1
Neighs:         5190.5 ave        5293 max        5107 min
Histogram: 2 0 0 0 0 0 0 1 0 1

Total # of neighbors = 20762
Ave neighs/atom = 57.672222
Neighbor list builds = 895
Dangerous builds = 0
Total wall time: 0:00:03
LAMMPS (15 Sep 2022)
OMP_NUM_THREADS environment is not set. Defaulting to 1 thread. (src/comm.cpp:98)
  using 1 OpenMP thread(s) per MPI task
Reading restart file ...
  restart file = 15 Sep 2022, LAMMPS = 15 Sep 2022
WARNING: Restart file used different # of processors: 1 vs. 4 (src/read_restart.cpp:659)
  restoring atom style atomic from restart
  orthogonal box = (0 0 0) to (6.6943295 6.6943295 6.6943295)
  1 by 2 by 2 MPI processor grid
  restoring pair style lj/cut from restart
  360 atoms
  read_restart CPU = 0.033 seconds
Setting up equilibration run
Resetting global fix info from restart file:
  fix style: nvt, fix ID: 1
Generated 0 of 1 mixed pair_coeff terms from geometric mixing rule
All restart file global fix info was re-assigned
Neighbor list info ...
  update: every = 1 steps, delay = 25 steps, check = yes
  max neighbors/atom: 2000, page size: 100000
  master list distance cutoff = 3
  ghost atom cutoff = 3
  binsize = 1.5, bins = 5 5 5
  1 neighbor lists, perpetual/occasional/extra = 1 0 0
  (1) pair lj/cut, perpetual
      attributes: half, newton on
      pair build: half/bin/atomonly/newton
      stencil: half/bin/3d
      bin: standard
Setting up Verlet run ...
  Unit style    : lj
  Current step  : 0
  Time step     : 0.003
Per MPI rank memory allocation (min/avg/max) = 3.137 | 3.137 | 3.138 Mbytes
   Step          Temp          E_pair         E_mol          TotEng         Press     
         0   0.70141677    -6.5562032      0             -5.5070006      6.115911     
      6000   0.71332832    -6.5268025      0             -5.4597822      6.4133862    
     12000   0.71291358    -6.6055258      0             -5.5391259      5.9631772    
     18000   0.6838258     -6.6714188      0             -5.6485294      5.4769981    
     24000   0.6873818     -6.5329509      0             -5.5047423      6.2986276    
     30000   0.63239069    -6.5052686      0             -5.5593175      6.5880291    
     36000   0.75919148    -6.5637759      0             -5.4281519      6.1416251    
     42000   0.67732476    -6.5175091      0             -5.5043441      6.4699967    
     45000   0.67796628    -6.5122702      0             -5.4981457      6.4962604    
Loop time of 4.68975 on 4 procs for 45000 steps with 360 atoms

Performance: 2487123.826 tau/day, 9595.385 timesteps/s, 3.454 Matom-step/s
99.5% CPU use with 4 MPI tasks x 1 OpenMP threads

MPI task timing breakdown:
Section |  min time  |  avg time  |  max time  |%varavg| %total
---------------------------------------------------------------
Pair    | 2.264      | 2.3544     | 2.4892     |   6.1 | 50.20
Neigh   | 0.24336    | 0.25156    | 0.26221    |   1.6 |  5.36
Comm    | 1.6975     | 1.7737     | 1.8486     |   4.4 | 37.82
Output  | 0.03627    | 0.041776   | 0.052682   |   3.2 |  0.89
Modify  | 0.14484    | 0.21639    | 0.28411    |  11.3 |  4.61
Other   |            | 0.0519     |            |       |  1.11

Nlocal:             90 ave          96 max          83 min
Histogram: 1 0 0 1 0 0 0 1 0 1
Nghost:        1230.75 ave        1261 max        1202 min
Histogram: 1 1 0 0 0 0 0 0 1 1
Neighs:        5204.25 ave        5521 max        4748 min
Histogram: 1 0 0 0 0 0 1 1 0 1

Total # of neighbors = 20817
Ave neighs/atom = 57.825
Neighbor list builds = 1475
Dangerous builds = 115
Total wall time: 0:00:04
LAMMPS (15 Sep 2022)
OMP_NUM_THREADS environment is not set. Defaulting to 1 thread. (src/comm.cpp:98)
  using 1 OpenMP thread(s) per MPI task
Reading restart file ...
  restart file = 15 Sep 2022, LAMMPS = 15 Sep 2022
WARNING: Restart file used different # of processors: 1 vs. 4 (src/read_restart.cpp:659)
  restoring atom style atomic from restart
  orthogonal box = (0 0 0) to (6.6943295 6.6943295 6.6943295)
  1 by 2 by 2 MPI processor grid
  restoring pair style lj/cut from restart
  360 atoms
  read_restart CPU = 0.026 seconds
Setting up equilibration run
Resetting global fix info from restart file:
  fix style: nvt, fix ID: 1
Generated 0 of 1 mixed pair_coeff terms from geometric mixing rule
All restart file global fix info was re-assigned
Neighbor list info ...
  update: every = 1 steps, delay = 25 steps, check = yes
  max neighbors/atom: 2000, page size: 100000
  master list distance cutoff = 3
  ghost atom cutoff = 3
  binsize = 1.5, bins = 5 5 5
  1 neighbor lists, perpetual/occasional/extra = 1 0 0
  (1) pair lj/cut, perpetual
      attributes: half, newton on
      pair build: half/bin/atomonly/newton
      stencil: half/bin/3d
      bin: standard
Setting up Verlet run ...
  Unit style    : lj
  Current step  : 0
  Time step     : 0.003
Per MPI rank memory allocation (min/avg/max) = 3.138 | 3.138 | 3.138 Mbytes
   Step          Temp          E_pair         E_mol          TotEng         Press     
         0   0.67947787    -6.5546119      0             -5.5382262      6.0505923    
     70000   0.65955517    -6.5671804      0             -5.5805958      6.1942013    
     87500   0.63005884    -6.6589953      0             -5.7165323      5.3372215    
Loop time of 8.96684 on 4 procs for 87500 steps with 360 atoms

Performance: 2529317.835 tau/day, 9758.171 timesteps/s, 3.513 Matom-step/s
99.6% CPU use with 4 MPI tasks x 1 OpenMP threads

MPI task timing breakdown:
Section |  min time  |  avg time  |  max time  |%varavg| %total
---------------------------------------------------------------
Pair    | 4.5053     | 4.5768     | 4.712      |   3.7 | 51.04
Neigh   | 0.45846    | 0.4664     | 0.47213    |   0.8 |  5.20
Comm    | 3.2775     | 3.3567     | 3.392      |   2.5 | 37.43
Output  | 0.053257   | 0.058851   | 0.069737   |   2.7 |  0.66
Modify  | 0.33569    | 0.40219    | 0.45869    |   6.9 |  4.49
Other   |            | 0.1059     |            |       |  1.18

Nlocal:             90 ave          93 max          84 min
Histogram: 1 0 0 0 0 0 1 0 0 2
Nghost:        1236.75 ave        1256 max        1213 min
Histogram: 1 0 0 0 1 0 0 1 0 1
Neighs:        5201.25 ave        5339 max        4869 min
Histogram: 1 0 0 0 0 0 0 0 1 2

Total # of neighbors = 20805
Ave neighs/atom = 57.791667
Neighbor list builds = 2738
Dangerous builds = 83
Total wall time: 0:00:09
LAMMPS (15 Sep 2022)
OMP_NUM_THREADS environment is not set. Defaulting to 1 thread. (src/comm.cpp:98)
  using 1 OpenMP thread(s) per MPI task
Reading restart file ...
  restart file = 15 Sep 2022, LAMMPS = 15 Sep 2022
WARNING: Restart file used different # of processors: 1 vs. 4 (src/read_restart.cpp:659)
  restoring atom style atomic from restart
  orthogonal box = (0 0 0) to (6.6943295 6.6943295 6.6943295)
  1 by 2 by 2 MPI processor grid
  restoring pair style lj/cut from restart
  360 atoms
  read_restart CPU = 0.035 seconds
Setting up equilibration run
Resetting global fix info from restart file:
  fix style: nvt, fix ID: 1
Generated 0 of 1 mixed pair_coeff terms from geometric mixing rule
All restart file global fix info was re-assigned
Neighbor list info ...
  update: every = 1 steps, delay = 25 steps, check = yes
  max neighbors/atom: 2000, page size: 100000
  master list distance cutoff = 3
  ghost atom cutoff = 3
  binsize = 1.5, bins = 5 5 5
  1 neighbor lists, perpetual/occasional/extra = 1 0 0
  (1) pair lj/cut, perpetual
      attributes: half, newton on
      pair build: half/bin/atomonly/newton
      stencil: half/bin/3d
      bin: standard
Setting up Verlet run ...
  Unit style    : lj
  Current step  : 0
  Time step     : 0.003
Per MPI rank memory allocation (min/avg/max) = 3.137 | 3.137 | 3.138 Mbytes
   Step          Temp          E_pair         E_mol          TotEng         Press     
         0   0.54239625    -6.7915888      0             -5.9802544      4.5917932    
     50000   0.61527509    -6.6876438      0             -5.7672948      5.2259668    
    100000   0.59458782    -6.6750222      0             -5.785618       5.4673316    
    150000   0.61751518    -6.7530676      0             -5.8293678      4.8589654    
    200000   0.5956947     -6.6765289      0             -5.785469       5.2509777    
    250000   0.65198047    -6.7192343      0             -5.7439802      5.2546837    
Loop time of 25.4436 on 4 procs for 250000 steps with 360 atoms

Performance: 2546812.168 tau/day, 9825.664 timesteps/s, 3.537 Matom-step/s
99.6% CPU use with 4 MPI tasks x 1 OpenMP threads

MPI task timing breakdown:
Section |  min time  |  avg time  |  max time  |%varavg| %total
---------------------------------------------------------------
Pair    | 12.903     | 12.996     | 13.158     |   2.7 | 51.08
Neigh   | 1.2703     | 1.2771     | 1.2946     |   0.9 |  5.02
Comm    | 9.4921     | 9.5692     | 9.6506     |   1.9 | 37.61
Output  | 0.11482    | 0.12048    | 0.13139    |   1.9 |  0.47
Modify  | 1.0383     | 1.1662     | 1.2676     |   7.6 |  4.58
Other   |            | 0.3148     |            |       |  1.24

Nlocal:             90 ave          95 max          86 min
Histogram: 1 0 1 0 0 1 0 0 0 1
Nghost:           1233 ave        1248 max        1221 min
Histogram: 1 1 0 0 0 0 1 0 0 1
Neighs:        5194.75 ave        5700 max        4861 min
Histogram: 1 0 1 1 0 0 0 0 0 1

Total # of neighbors = 20779
Ave neighs/atom = 57.719444
Neighbor list builds = 7485
Dangerous builds = 149
Total wall time: 0:00:25
LAMMPS (15 Sep 2022)
OMP_NUM_THREADS environment is not set. Defaulting to 1 thread. (src/comm.cpp:98)
  using 1 OpenMP thread(s) per MPI task
Reading restart file ...
  restart file = 15 Sep 2022, LAMMPS = 15 Sep 2022
WARNING: Restart file used different # of processors: 1 vs. 4 (src/read_restart.cpp:659)
  restoring atom style atomic from restart
  orthogonal box = (0 0 0) to (6.6943295 6.6943295 6.6943295)
  1 by 2 by 2 MPI processor grid
  restoring pair style lj/cut from restart
  360 atoms
  read_restart CPU = 0.042 seconds
Setting up equilibration run
Resetting global fix info from restart file:
  fix style: nvt, fix ID: 1
Generated 0 of 1 mixed pair_coeff terms from geometric mixing rule
All restart file global fix info was re-assigned
Neighbor list info ...
  update: every = 1 steps, delay = 25 steps, check = yes
  max neighbors/atom: 2000, page size: 100000
  master list distance cutoff = 3
  ghost atom cutoff = 3
  binsize = 1.5, bins = 5 5 5
  1 neighbor lists, perpetual/occasional/extra = 1 0 0
  (1) pair lj/cut, perpetual
      attributes: half, newton on
      pair build: half/bin/atomonly/newton
      stencil: half/bin/3d
      bin: standard
Setting up Verlet run ...
  Unit style    : lj
  Current step  : 0
  Time step     : 0.003
Per MPI rank memory allocation (min/avg/max) = 3.137 | 3.137 | 3.138 Mbytes
   Step          Temp          E_pair         E_mol          TotEng         Press     
         0   0.53627048    -6.8221906      0             -6.0200194      4.4752814    
     30000   0.53683178    -6.7883402      0             -5.9853293      4.5140983    
     60000   0.54275655    -6.8673427      0             -6.0554694      4.1587381    
     90000   0.57728823    -6.7913465      0             -5.9278195      4.6373083    
    120000   0.52457197    -6.8031595      0             -6.0184873      4.3510721    
    150000   0.54056418    -6.8015268      0             -5.9929329      4.5386013    
    180000   0.53660943    -6.7861442      0             -5.9834659      4.5487862    
    210000   0.55966285    -6.8056541      0             -5.9684917      4.5557219    
    240000   0.56758912    -6.7931049      0             -5.9440861      4.4819463    
    270000   0.55668522    -6.8875086      0             -6.0548003      3.8749782    
    300000   0.56222684    -6.8320406      0             -5.991043       4.3470719    
    330000   0.52515866    -6.7266256      0             -5.9410758      4.984205     
    360000   0.5451983     -6.8485248      0             -6.032999       4.2807399    
    390000   0.52183936    -6.7972673      0             -6.0166826      4.5759451    
    420000   0.56973198    -6.8695343      0             -6.0173102      4.1540112    
    450000   0.5162766     -6.8277304      0             -6.0554667      4.3452268    
    480000   0.52779222    -6.7986493      0             -6.0091601      4.5137208    
    510000   0.54370873    -6.7543157      0             -5.941018       4.6487295    
    540000   0.60034564    -6.800672       0             -5.902655       4.7391495    
    570000   0.53144395    -6.7982728      0             -6.0033212      4.5546301    
    600000   0.59646136    -6.8297043      0             -5.9374975      4.540898     
    630000   0.49803011    -6.8289617      0             -6.0839917      4.1883375    
    660000   0.5680502     -6.8761316      0             -6.0264232      4.1178795    
    690000   0.54773442    -6.8109414      0             -5.991622       4.4126301    
    720000   0.52215915    -6.8092557      0             -6.0281926      4.3950107    
    750000   0.51595796    -6.7695927      0             -5.9978056      4.5525271    
Loop time of 76.9882 on 4 procs for 750000 steps with 360 atoms

Performance: 2525062.174 tau/day, 9741.752 timesteps/s, 3.507 Matom-step/s
99.7% CPU use with 4 MPI tasks x 1 OpenMP threads

MPI task timing breakdown:
Section |  min time  |  avg time  |  max time  |%varavg| %total
---------------------------------------------------------------
Pair    | 38.859     | 39.412     | 40.947     |  14.1 | 51.19
Neigh   | 3.5888     | 3.6416     | 3.7476     |   3.3 |  4.73
Comm    | 28.188     | 29.362     | 29.929     |  13.1 | 38.14
Output  | 0.041705   | 0.047223   | 0.058046   |   2.9 |  0.06
Modify  | 2.9717     | 3.5259     | 4.0426     |  20.3 |  4.58
Other   |            | 1          |            |       |  1.30

Nlocal:             90 ave          93 max          88 min
Histogram: 1 0 1 0 1 0 0 0 0 1
Nghost:        1237.75 ave        1252 max        1227 min
Histogram: 1 0 1 0 1 0 0 0 0 1
Neighs:        5198.25 ave        5437 max        4961 min
Histogram: 1 0 0 0 1 1 0 0 0 1

Total # of neighbors = 20793
Ave neighs/atom = 57.758333
Neighbor list builds = 21265
Dangerous builds = 181
Total wall time: 0:01:17
LAMMPS (15 Sep 2022)
OMP_NUM_THREADS environment is not set. Defaulting to 1 thread. (src/comm.cpp:98)
  using 1 OpenMP thread(s) per MPI task
Reading restart file ...
ERROR on proc 0: Cannot open restart file equil/kalj_T0.5_n360_v300_10000000_1.final.lmprestart.10000000: No such file or directory (src/read_restart.cpp:113)
Last command: read_restart ${prevbasename}.final.lmprestart.${steps}
LAMMPS (15 Sep 2022)
OMP_NUM_THREADS environment is not set. Defaulting to 1 thread. (src/comm.cpp:98)
  using 1 OpenMP thread(s) per MPI task
Reading restart file ...
ERROR on proc 0: Cannot open restart file equil/kalj_T0.475_n360_v300_30000000_1.final.lmprestart.30000000: No such file or directory (src/read_restart.cpp:113)
Last command: read_restart ${prevbasename}.final.lmprestart.${steps}
