 DBCSR| CPU Multiplication driver                                           XSMM
 DBCSR| Multrec recursion limit                                              512
 DBCSR| Multiplication stack size                                           1000
 DBCSR| Maximum elements for images                                    UNLIMITED
 DBCSR| Multiplicative factor virtual images                                   1
 DBCSR| Use multiplication densification                                       T
 DBCSR| Multiplication size stacks                                             3
 DBCSR| Use memory pool for CPU allocation                                     F
 DBCSR| Number of 3D layers                                               SINGLE
 DBCSR| Use MPI memory allocation                                              F
 DBCSR| Use RMA algorithm                                                      F
 DBCSR| Use Communication thread                                               T
 DBCSR| Communication thread load                                             87
 DBCSR| MPI: My node id                                                        0
 DBCSR| MPI: Number of nodes                                                  12
 DBCSR| OMP: Current number of threads                                         1
 DBCSR| OMP: Max number of threads                                             1
 DBCSR| Split modifier for TAS multiplication algorithm                  1.0E+00


  **** **** ******  **  PROGRAM STARTED AT               2024-11-21 15:25:38.231
 ***** ** ***  *** **   PROGRAM STARTED ON                     cm048.hpc.nyu.edu
 **    ****   ******    PROGRAM STARTED BY                                mr6966
 ***** **    ** ** **   PROGRAM PROCESS ID                               2728937
  **** **  *******  **  PROGRAM STARTED IN /scratch/work/courses/CHEM-GA-2671-20
                                           24fa/students/mr6966/comp-lab-class-2
                                           024-MR/Week12-IntroAIMD/Runs/Protons

 CP2K| version string:                    CP2K version 8.0 (Development Version)
 CP2K| source code revision number:                                  git:8c64c6e
 CP2K| cp2kflags: omp libint fftw3 libxc elpa parallel mpi3 scalapack xsmm max_c
 CP2K|            ontr=4 mkl
 CP2K| is freely available from                            https://www.cp2k.org/
 CP2K| Program compiled at                          Sat Dec 12 18:27:15 EST 2020
 CP2K| Program compiled on                                     cs001.nyu.cluster
 CP2K| Program compiled for                                            nyu-intel
 CP2K| Data directory path                    /home/wang/cp2k-20201212/cp2k/data
 CP2K| Input file name                                                proton.inp
 
 GLOBAL| Force Environment number                                              1
 GLOBAL| Basis set file name                                           HFX_BASIS
 GLOBAL| Potential file name                                      GTH_POTENTIALS
 GLOBAL| MM Potential file name                                     MM_POTENTIAL
 GLOBAL| Coordinate file name                                          water.xyz
 GLOBAL| Method name                                                        CP2K
 GLOBAL| Project name                                  water_aimd_1ns_every0.5fs
 GLOBAL| Preferred FFT library                                             FFTW3
 GLOBAL| Preferred diagonalization lib.                                     ELPA
 GLOBAL| Run type                                                             MD
 GLOBAL| All-to-all communication in single precision                          F
 GLOBAL| FFTs using library dependent lengths                                  F
 GLOBAL| Global print level                                                  LOW
 GLOBAL| MPI I/O enabled                                                       T
 GLOBAL| Total number of message passing processes                            12
 GLOBAL| Number of threads for this process                                    1
 GLOBAL| This output is from process                                           0
 GLOBAL| CPU model name             Intel(R) Xeon(R) Platinum 8268 CPU @ 2.90GHz
 GLOBAL| CPUID                                                              1003
 GLOBAL| Compiled for CPUID                                                    0

 *** HINT in environment.F:801 :: The compiler target flags (generic) used ***
 *** to build this binary cannot exploit all extensions of this CPU model  ***
 *** (x86_avx512). Consider compiler target flags as part of FCFLAGS and   ***
 *** CFLAGS (ARCH file).                                                   ***


 MEMORY| system memory details [Kb]
 MEMORY|                        rank 0           min           max       average
 MEMORY| MemTotal            395094988     395094988     395094988     395094988
 MEMORY| MemFree             222421624     222421624     222421624     222421624
 MEMORY| Buffers                121136        121136        121136        121136
 MEMORY| Cached              129564580     129564580     129564580     129564580
 MEMORY| Slab                  1625992       1625992       1625992       1625992
 MEMORY| SReclaimable           946396        946396        946396        946396
 MEMORY| MemLikelyFree       353053736     353053736     353053736     353053736


 *******************************************************************************
 *   ___                                                                       *
 *  /   \                                                                      *
 * [ABORT]                                                                     *
 *  \___/                 Coordinate file <water.xyz> not found.               *
 *    |                                                                        *
 *  O/|                                                                        *
 * /| |                                                                        *
 * / \                                                          topology.F:553 *
 *******************************************************************************


 ===== Routine Calling Stack ===== 

            3 coordinate_control
            2 topology_control
            1 CP2K
 DBCSR| CPU Multiplication driver                                           XSMM
 DBCSR| Multrec recursion limit                                              512
 DBCSR| Multiplication stack size                                           1000
 DBCSR| Maximum elements for images                                    UNLIMITED
 DBCSR| Multiplicative factor virtual images                                   1
 DBCSR| Use multiplication densification                                       T
 DBCSR| Multiplication size stacks                                             3
 DBCSR| Use memory pool for CPU allocation                                     F
 DBCSR| Number of 3D layers                                               SINGLE
 DBCSR| Use MPI memory allocation                                              F
 DBCSR| Use RMA algorithm                                                      F
 DBCSR| Use Communication thread                                               T
 DBCSR| Communication thread load                                             87
 DBCSR| MPI: My node id                                                        0
 DBCSR| MPI: Number of nodes                                                  12
 DBCSR| OMP: Current number of threads                                         1
 DBCSR| OMP: Max number of threads                                             1
 DBCSR| Split modifier for TAS multiplication algorithm                  1.0E+00


  **** **** ******  **  PROGRAM STARTED AT               2024-11-21 15:37:09.257
 ***** ** ***  *** **   PROGRAM STARTED ON                     cm046.hpc.nyu.edu
 **    ****   ******    PROGRAM STARTED BY                                mr6966
 ***** **    ** ** **   PROGRAM PROCESS ID                               3685336
  **** **  *******  **  PROGRAM STARTED IN /scratch/work/courses/CHEM-GA-2671-20
                                           24fa/students/mr6966/comp-lab-class-2
                                           024-MR/Week12-IntroAIMD/Runs/Protons

 CP2K| version string:                    CP2K version 8.0 (Development Version)
 CP2K| source code revision number:                                  git:8c64c6e
 CP2K| cp2kflags: omp libint fftw3 libxc elpa parallel mpi3 scalapack xsmm max_c
 CP2K|            ontr=4 mkl
 CP2K| is freely available from                            https://www.cp2k.org/
 CP2K| Program compiled at                          Sat Dec 12 18:27:15 EST 2020
 CP2K| Program compiled on                                     cs001.nyu.cluster
 CP2K| Program compiled for                                            nyu-intel
 CP2K| Data directory path                    /home/wang/cp2k-20201212/cp2k/data
 CP2K| Input file name                                                proton.inp
 
 GLOBAL| Force Environment number                                              1
 GLOBAL| Basis set file name                                           HFX_BASIS
 GLOBAL| Potential file name                                      GTH_POTENTIALS
 GLOBAL| MM Potential file name                                     MM_POTENTIAL
 GLOBAL| Coordinate file name                                         proton.xyz
 GLOBAL| Method name                                                        CP2K
 GLOBAL| Project name                                  water_aimd_1ns_every0.5fs
 GLOBAL| Preferred FFT library                                             FFTW3
 GLOBAL| Preferred diagonalization lib.                                     ELPA
 GLOBAL| Run type                                                             MD
 GLOBAL| All-to-all communication in single precision                          F
 GLOBAL| FFTs using library dependent lengths                                  F
 GLOBAL| Global print level                                                  LOW
 GLOBAL| MPI I/O enabled                                                       T
 GLOBAL| Total number of message passing processes                            12
 GLOBAL| Number of threads for this process                                    1
 GLOBAL| This output is from process                                           0
 GLOBAL| CPU model name             Intel(R) Xeon(R) Platinum 8268 CPU @ 2.90GHz
 GLOBAL| CPUID                                                              1003
 GLOBAL| Compiled for CPUID                                                    0

 *** HINT in environment.F:801 :: The compiler target flags (generic) used ***
 *** to build this binary cannot exploit all extensions of this CPU model  ***
 *** (x86_avx512). Consider compiler target flags as part of FCFLAGS and   ***
 *** CFLAGS (ARCH file).                                                   ***


 MEMORY| system memory details [Kb]
 MEMORY|                        rank 0           min           max       average
 MEMORY| MemTotal            395095004     395095004     395095004     395095004
 MEMORY| MemFree             265722432     265722432     265722936     265722810
 MEMORY| Buffers                 20128         20128         20128         20128
 MEMORY| Cached               86072660      86072660      86072660      86072660
 MEMORY| Slab                  4577580       4577580       4577580       4577580
 MEMORY| SReclaimable          3579548       3579548       3579548       3579548
 MEMORY| MemLikelyFree       355394768     355394768     355395272     355395146

 WARNING| Particles:     143    142 at distance [au]:     0.00000000 less than:      0.01889726; increase EMAX_SPLINE.

 *******************************************************************************
 *   ___                                                                       *
 *  /   \                                                                      *
 * [ABORT]                                                                     *
 *  \___/                GEOMETRY wrong or EMAX_SPLINE too small!              *
 *    |                                                                        *
 *  O/|                                                                        *
 * /| |                                                                        *
 * / \                                               fist_neighbor_lists.F:607 *
 *******************************************************************************


 ===== Routine Calling Stack ===== 

            7 build_neighbor_lists
            6 build_fist_neighbor_lists
            5 topology_generate_bond_3
            4 topology_generate_bond
            3 connectivity_control
            2 topology_control
            1 CP2K
 DBCSR| CPU Multiplication driver                                           XSMM
 DBCSR| Multrec recursion limit                                              512
 DBCSR| Multiplication stack size                                           1000
 DBCSR| Maximum elements for images                                    UNLIMITED
 DBCSR| Multiplicative factor virtual images                                   1
 DBCSR| Use multiplication densification                                       T
 DBCSR| Multiplication size stacks                                             3
 DBCSR| Use memory pool for CPU allocation                                     F
 DBCSR| Number of 3D layers                                               SINGLE
 DBCSR| Use MPI memory allocation                                              F
 DBCSR| Use RMA algorithm                                                      F
 DBCSR| Use Communication thread                                               T
 DBCSR| Communication thread load                                             87
 DBCSR| MPI: My node id                                                        0
 DBCSR| MPI: Number of nodes                                                  12
 DBCSR| OMP: Current number of threads                                         1
 DBCSR| OMP: Max number of threads                                             1
 DBCSR| Split modifier for TAS multiplication algorithm                  1.0E+00


  **** **** ******  **  PROGRAM STARTED AT               2024-12-01 20:58:07.059
 ***** ** ***  *** **   PROGRAM STARTED ON                     cm006.hpc.nyu.edu
 **    ****   ******    PROGRAM STARTED BY                                mr6966
 ***** **    ** ** **   PROGRAM PROCESS ID                               2222742
  **** **  *******  **  PROGRAM STARTED IN /scratch/work/courses/CHEM-GA-2671-20
                                           24fa/students/mr6966/comp-lab-class-2
                                           024-MR/Week12-IntroAIMD/Runs/Protons

 CP2K| version string:                    CP2K version 8.0 (Development Version)
 CP2K| source code revision number:                                  git:8c64c6e
 CP2K| cp2kflags: omp libint fftw3 libxc elpa parallel mpi3 scalapack xsmm max_c
 CP2K|            ontr=4 mkl
 CP2K| is freely available from                            https://www.cp2k.org/
 CP2K| Program compiled at                          Sat Dec 12 18:27:15 EST 2020
 CP2K| Program compiled on                                     cs001.nyu.cluster
 CP2K| Program compiled for                                            nyu-intel
 CP2K| Data directory path                    /home/wang/cp2k-20201212/cp2k/data
 CP2K| Input file name                                                proton.inp
 
 GLOBAL| Force Environment number                                              1
 GLOBAL| Basis set file name                                           HFX_BASIS
 GLOBAL| Potential file name                                      GTH_POTENTIALS
 GLOBAL| MM Potential file name                                     MM_POTENTIAL
 GLOBAL| Coordinate file name                                         proton.xyz
 GLOBAL| Method name                                                        CP2K
 GLOBAL| Project name                                  water_aimd_1ns_every0.5fs
 GLOBAL| Preferred FFT library                                             FFTW3
 GLOBAL| Preferred diagonalization lib.                                     ELPA
 GLOBAL| Run type                                                             MD
 GLOBAL| All-to-all communication in single precision                          F
 GLOBAL| FFTs using library dependent lengths                                  F
 GLOBAL| Global print level                                                  LOW
 GLOBAL| MPI I/O enabled                                                       T
 GLOBAL| Total number of message passing processes                            12
 GLOBAL| Number of threads for this process                                    1
 GLOBAL| This output is from process                                           0
 GLOBAL| CPU model name             Intel(R) Xeon(R) Platinum 8268 CPU @ 2.90GHz
 GLOBAL| CPUID                                                              1003
 GLOBAL| Compiled for CPUID                                                    0

 *** HINT in environment.F:801 :: The compiler target flags (generic) used ***
 *** to build this binary cannot exploit all extensions of this CPU model  ***
 *** (x86_avx512). Consider compiler target flags as part of FCFLAGS and   ***
 *** CFLAGS (ARCH file).                                                   ***


 MEMORY| system memory details [Kb]
 MEMORY|                        rank 0           min           max       average
 MEMORY| MemTotal            395391424     395391424     395391424     395391424
 MEMORY| MemFree             202939676     202939676     202939928     202939907
 MEMORY| Buffers                 42832         42832         42832         42832
 MEMORY| Cached               95608884      95608884      95609196      95609170
 MEMORY| Slab                  2342792       2342792       2342792       2342792
 MEMORY| SReclaimable          1549200       1549200       1549200       1549200
 MEMORY| MemLikelyFree       300140592     300140592     300141156     300141109

 
 GENERATE|  Preliminary Number of Bonds generated:                             0
 GENERATE|  Achieved consistency in connectivity generation.

 *******************************************************************************
 *******************************************************************************
 **                                                                           **
 **     #####                         ##              ##                      **
 **    ##   ##            ##          ##              ##                      **
 **   ##     ##                       ##            ######                    **
 **   ##     ##  ##   ##  ##   #####  ##  ##   ####   ##    #####    #####    **
 **   ##     ##  ##   ##  ##  ##      ## ##   ##      ##   ##   ##  ##   ##   **
 **   ##  ## ##  ##   ##  ##  ##      ####     ###    ##   ######   ######    **
 **    ##  ###   ##   ##  ##  ##      ## ##      ##   ##   ##       ##        **
 **     #######   #####   ##   #####  ##  ##  ####    ##    #####   ##        **
 **           ##                                                    ##        **
 **                                                                           **
 **                                                ... make the atoms dance   **
 **                                                                           **
 **            Copyright (C) by CP2K developers group (2000 - 2020)           **
 **                      J. Chem. Phys. 152, 194103 (2020)                    **
 **                                                                           **
 *******************************************************************************


 TOTAL NUMBERS AND MAXIMUM NUMBERS

  Total number of            - Atomic kinds:                                   2
                             - Atoms:                                        193
                             - Shell sets:                                   579
                             - Shells:                                       707
                             - Primitive Cartesian functions:                965
                             - Cartesian basis functions:                   1541
                             - Spherical basis functions:                   1477

  Maximum angular momentum of- Orbital basis functions:                        2
                             - Local part of the GTH pseudopotential:          2
                             - Non-local part of the GTH pseudopotential:      0


 SCF PARAMETERS         Density guess:                                    ATOMIC
                        --------------------------------------------------------
                        max_scf:                                              30
                        max_scf_history:                                       0
                        max_diis:                                              4
                        --------------------------------------------------------
                        eps_scf:                                        1.00E-06
                        eps_scf_history:                                0.00E+00
                        eps_diis:                                       1.00E-01
                        eps_eigval:                                     1.00E-05
                        --------------------------------------------------------
                        level_shift [a.u.]:                                 0.00
                        --------------------------------------------------------
                        Outer loop SCF in use 
                        No variables optimised in outer loop
                        eps_scf                                         1.00E-06
                        max_scf                                               10
                        No outer loop optimization
                        step_size                                       5.00E-01
 
 MD_PAR| Molecular dynamics protocol (MD input parameters)
 MD_PAR| Ensemble type                                                       NVT
 MD_PAR| Number of time steps                                               2000
 MD_PAR| Time step [fs]                                                 0.500000
 MD_PAR| Temperature [K]                                              300.000000
 MD_PAR| Temperature tolerance [K]                                      0.000000
 MD_PAR| Print MD information every                                    1 step(s)
 MD_PAR| File type   Print frequency [steps]                          File names
 MD_PAR| Coordinates          1              water_aimd_1ns_every0.5fs-pos-1.xyz
 MD_PAR| Velocities           1              water_aimd_1ns_every0.5fs-vel-1.xyz
 MD_PAR| Energies             1                 water_aimd_1ns_every0.5fs-1.ener
 MD_PAR| Dump                 1              water_aimd_1ns_every0.5fs-1.restart

 ROT| Rotational analysis information
 ROT| Principal axes and moments of inertia [a.u.]
 ROT|                           1                   2                   3
 ROT| Eigenvalues      2.05953348723E+08   2.18644558409E+08   2.44651530491E+08
 ROT|      x              0.415791068803     -0.524119088157      0.743247582259
 ROT|      y              0.908472623141      0.201284591695     -0.366281321048
 ROT|      z              0.042370745874      0.827516582659      0.559840178370
 ROT| Number of rotovibrational vectors                                        6

 DOF| Calculation of degrees of freedom
 DOF| Number of atoms                                                        193
 DOF| Number of intramolecular constraints                                     0
 DOF| Number of intermolecular constraints                                     0
 DOF| Invariants (translations + rotations)                                    0
 DOF| Degrees of freedom                                                     579

 DOF| Restraints information
 DOF| Number of intramolecular restraints                                      0
 DOF| Number of intermolecular restraints                                      0

 THERMOSTAT| Thermostat information for PARTICLES
 THERMOSTAT| End of thermostat information for PARTICLES

 MD_VEL| Velocities initialization
 MD_VEL| Initial temperature [K]                                      300.000000
 MD_VEL| COM velocity            -0.0000000000    -0.0000000000     0.0000000000

 Number of electrons:                                                        512
 Number of occupied orbitals:                                                256
 Number of molecular orbitals:                                               256

 Number of orbital functions:                                               1477
 Number of independent orbital functions:                                   1477

 Extrapolation method: initial_guess


 SCF WAVEFUNCTION OPTIMIZATION

  ----------------------------------- OT ---------------------------------------
  Minimizer      : DIIS                : direct inversion
                                         in the iterative subspace
                                         using   7 DIIS vectors
                                         safer DIIS on
  Preconditioner : FULL_SINGLE_INVERSE : inversion of 
                                         H + eS - 2*(Sc)(c^T*H*c+const)(Sc)^T
  Precond_solver : DEFAULT
  stepsize       :    0.08000000                  energy_gap     :    0.08000000
  eps_taylor     :   0.10000E-15                  max_taylor     :             4
  ----------------------------------- OT ---------------------------------------

  Step     Update method      Time    Convergence         Total energy    Change
  ------------------------------------------------------------------------------
     1 OT DIIS     0.80E-01    0.9     0.03011197     -1059.4618696704 -1.06E+03
     2 OT DIIS     0.80E-01    0.9     0.02236578     -1079.0258969129 -1.96E+01
     3 OT DIIS     0.80E-01    0.9     0.01732557     -1088.7019547004 -9.68E+00
     4 OT DIIS     0.80E-01    0.8     0.01069733     -1096.9485152408 -8.25E+00
     5 OT DIIS     0.80E-01    0.9     0.00664310     -1100.3634706274 -3.41E+00
     6 OT DIIS     0.80E-01    0.8     0.00434820     -1101.7902836047 -1.43E+00
     7 OT DIIS     0.80E-01    0.8     0.00260046     -1102.4055555386 -6.15E-01
     8 OT DIIS     0.80E-01    0.8     0.00171650     -1102.6337316268 -2.28E-01
     9 OT DIIS     0.80E-01    0.8     0.00124317     -1102.7429374587 -1.09E-01
    10 OT DIIS     0.80E-01    0.8     0.00085609     -1102.8194996276 -7.66E-02
    11 OT DIIS     0.80E-01    0.9     0.00063043     -1102.8616520635 -4.22E-02
    12 OT DIIS     0.80E-01    0.9     0.00041486     -1102.8860391375 -2.44E-02
    13 OT DIIS     0.80E-01    0.8     0.00030062     -1102.8984352150 -1.24E-02
    14 OT DIIS     0.80E-01    0.8     0.00022042     -1102.9050855371 -6.65E-03
    15 OT DIIS     0.80E-01    0.8     0.00016574     -1102.9089235250 -3.84E-03
    16 OT DIIS     0.80E-01    0.8     0.00013298     -1102.9110109734 -2.09E-03
    17 OT DIIS     0.80E-01    0.8     0.00010907     -1102.9124140992 -1.40E-03
    18 OT DIIS     0.80E-01    0.8     0.00009195     -1102.9134484132 -1.03E-03
    19 OT DIIS     0.80E-01    0.8     0.00007988     -1102.9142306455 -7.82E-04
    20 OT DIIS     0.80E-01    0.9     0.00007056     -1102.9148685607 -6.38E-04
    21 OT DIIS     0.80E-01    0.8     0.00006280     -1102.9154259238 -5.57E-04
    22 OT DIIS     0.80E-01    0.8     0.00005590     -1102.9159333280 -5.07E-04
    23 OT DIIS     0.80E-01    0.8     0.00005066     -1102.9163245384 -3.91E-04
    24 OT DIIS     0.80E-01    0.8     0.00004597     -1102.9166841576 -3.60E-04
    25 OT DIIS     0.80E-01    0.8     0.00004194     -1102.9169969322 -3.13E-04
    26 OT DIIS     0.80E-01    0.8     0.00003874     -1102.9172485390 -2.52E-04
    27 OT DIIS     0.80E-01    0.8     0.00003591     -1102.9174783363 -2.30E-04
    28 OT DIIS     0.80E-01    0.8     0.00003346     -1102.9176851103 -2.07E-04
    29 OT DIIS     0.80E-01    0.8     0.00003151     -1102.9178723184 -1.87E-04
    30 OT DIIS     0.80E-01    0.8     0.00002985     -1102.9180306569 -1.58E-04

  Leaving inner SCF loop after reaching    30 steps.


  Electronic density on regular grids:       -511.9999999886        0.0000000114
  Core density on regular grids:              512.9999999831       -0.0000000169
  Total charge density on r-space grids:        0.9999999945
  Total charge density g-space grids:           0.9999999945

  Overlap energy of the core charge distribution:               0.00000234379921
  Self energy of the core charge distribution:              -2839.62839375007934
  Core Hamiltonian energy:                                    829.72438817712691
  Hartree energy:                                            1179.00478583416725
  Exchange-correlation energy:                               -271.77041044671512
  Dispersion energy:                                           -0.24840281520455

  Total energy:                                             -1102.91803065690578

  outer SCF iter =    1 RMS gradient =   0.30E-04 energy =      -1102.9180306569

  ----------------------------------- OT ---------------------------------------
  Minimizer      : DIIS                : direct inversion
                                         in the iterative subspace
                                         using   7 DIIS vectors
                                         safer DIIS on
  Preconditioner : FULL_SINGLE_INVERSE : inversion of 
                                         H + eS - 2*(Sc)(c^T*H*c+const)(Sc)^T
  Precond_solver : DEFAULT
  stepsize       :    0.08000000                  energy_gap     :    0.08000000
  eps_taylor     :   0.10000E-15                  max_taylor     :             4
  ----------------------------------- OT ---------------------------------------

  Step     Update method      Time    Convergence         Total energy    Change
  ------------------------------------------------------------------------------
     1 OT DIIS     0.80E-01    1.9     0.00009755     -1102.9181924883 -1.62E-04
     2 OT DIIS     0.80E-01    0.8     0.00007931     -1102.9184358407 -2.43E-04
     3 OT DIIS     0.80E-01    0.8     0.00008161     -1102.9186049419 -1.69E-04
     4 OT DIIS     0.80E-01    0.8     0.00006508     -1102.9188024185 -1.97E-04
     5 OT DIIS     0.80E-01    0.8     0.00005858     -1102.9189198427 -1.17E-04
     6 OT DIIS     0.80E-01    0.8     0.00005291     -1102.9190242284 -1.04E-04
     7 OT DIIS     0.80E-01    0.8     0.00005094     -1102.9191943326 -1.70E-04
     8 OT DIIS     0.80E-01    0.8     0.00005158     -1102.9193744958 -1.80E-04
     9 OT DIIS     0.80E-01    0.8     0.00004747     -1102.9195513666 -1.77E-04
    10 OT DIIS     0.80E-01    0.8     0.00004763     -1102.9196849797 -1.34E-04
    11 OT DIIS     0.80E-01    0.8     0.00004650     -1102.9197804489 -9.55E-05
    12 OT DIIS     0.80E-01    0.8     0.00004578     -1102.9198296763 -4.92E-05
    13 OT DIIS     0.80E-01    0.8     0.00004609     -1102.9199415227 -1.12E-04
    14 OT DIIS     0.80E-01    0.8     0.00004601     -1102.9199492960 -7.77E-06
    15 OT SD       0.80E-01    0.8     0.00004542     -1102.9199663909 -1.71E-05
    16 OT DIIS     0.80E-01    0.8     0.00004630     -1102.9200272282 -6.08E-05
    17 OT DIIS     0.80E-01    0.8     0.00004518     -1102.9200462767 -1.90E-05
    18 OT DIIS     0.80E-01    0.8     0.00004418     -1102.9201424602 -9.62E-05
    19 OT DIIS     0.80E-01    0.8     0.00004472     -1102.9201954231 -5.30E-05
    20 OT DIIS     0.80E-01    0.8     0.00004378     -1102.9203327227 -1.37E-04
    21 OT DIIS     0.80E-01    0.8     0.00004252     -1102.9206294280 -2.97E-04
    22 OT DIIS     0.80E-01    0.8     0.00004392     -1102.9206931958 -6.38E-05
    23 OT DIIS     0.80E-01    0.8     0.00004006     -1102.9209695936 -2.76E-04
    24 OT SD       0.80E-01    0.8     0.00005708     -1102.9209717078 -2.11E-06
    25 OT SD       0.80E-01    0.8     0.00005067     -1102.9210342211 -6.25E-05
    26 OT SD       0.80E-01    0.8     0.00006887     -1102.9210739610 -3.97E-05
    27 OT DIIS     0.80E-01    0.8     0.00013943     -1102.9210552989  1.87E-05
    28 OT SD       0.80E-01    0.8     0.00003898     -1102.9212403993 -1.85E-04
    29 OT DIIS     0.80E-01    0.8     0.00003825     -1102.9212776644 -3.73E-05
    30 OT DIIS     0.80E-01    0.8     0.00003364     -1102.9214151987 -1.38E-04

  Leaving inner SCF loop after reaching    30 steps.


  Electronic density on regular grids:       -511.9999999886        0.0000000114
  Core density on regular grids:              512.9999999831       -0.0000000169
  Total charge density on r-space grids:        0.9999999945
  Total charge density g-space grids:           0.9999999945

  Overlap energy of the core charge distribution:               0.00000234379921
  Self energy of the core charge distribution:              -2839.62839375007934
  Core Hamiltonian energy:                                    829.72111776264865
  Hartree energy:                                            1179.00340726917284
  Exchange-correlation energy:                               -271.76914600905968
  Dispersion energy:                                           -0.24840281520455

  Total energy:                                             -1102.92141519872280

  outer SCF iter =    2 RMS gradient =   0.34E-04 energy =      -1102.9214151987

  ----------------------------------- OT ---------------------------------------
  Minimizer      : DIIS                : direct inversion
                                         in the iterative subspace
                                         using   7 DIIS vectors
                                         safer DIIS on
  Preconditioner : FULL_SINGLE_INVERSE : inversion of 
                                         H + eS - 2*(Sc)(c^T*H*c+const)(Sc)^T
  Precond_solver : DEFAULT
  stepsize       :    0.08000000                  energy_gap     :    0.08000000
  eps_taylor     :   0.10000E-15                  max_taylor     :             4
  ----------------------------------- OT ---------------------------------------

  Step     Update method      Time    Convergence         Total energy    Change
  ------------------------------------------------------------------------------
     1 OT DIIS     0.80E-01    1.8     0.00003303     -1102.9214466560 -3.15E-05
     2 OT DIIS     0.80E-01    0.8     0.00004023     -1102.9214727920 -2.61E-05
     3 OT DIIS     0.80E-01    0.8     0.00003028     -1102.9214846646 -1.19E-05
     4 OT DIIS     0.80E-01    0.8     0.00003063     -1102.9215263388 -4.17E-05
     5 OT DIIS     0.80E-01    0.8     0.00002641     -1102.9216843194 -1.58E-04
     6 OT DIIS     0.80E-01    0.8     0.00002371     -1102.9217252060 -4.09E-05
     7 OT DIIS     0.80E-01    0.8     0.00002651     -1102.9217631089 -3.79E-05
     8 OT DIIS     0.80E-01    0.8     0.00002132     -1102.9218402837 -7.72E-05
     9 OT DIIS     0.80E-01    0.8     0.00002087     -1102.9218310296  9.25E-06
    10 OT DIIS     0.80E-01    0.8     0.00001609     -1102.9218493731 -1.83E-05
    11 OT DIIS     0.80E-01    0.8     0.00001326     -1102.9218720709 -2.27E-05
    12 OT DIIS     0.80E-01    0.8     0.00001107     -1102.9218794284 -7.36E-06
    13 OT DIIS     0.80E-01    0.8     0.00001181     -1102.9218837328 -4.30E-06
    14 OT DIIS     0.80E-01    0.8     0.00001009     -1102.9218904562 -6.72E-06
    15 OT DIIS     0.80E-01    0.8     0.00000977     -1102.9218948740 -4.42E-06
    16 OT DIIS     0.80E-01    0.8     0.00000901     -1102.9219042915 -9.42E-06
    17 OT DIIS     0.80E-01    0.8     0.00000903     -1102.9219123488 -8.06E-06
    18 OT DIIS     0.80E-01    0.8     0.00000871     -1102.9219151736 -2.82E-06
    19 OT DIIS     0.80E-01    0.8     0.00000864     -1102.9219194984 -4.32E-06
    20 OT DIIS     0.80E-01    0.8     0.00000862     -1102.9219213933 -1.89E-06
    21 OT DIIS     0.80E-01    0.8     0.00000857     -1102.9219237671 -2.37E-06
    22 OT DIIS     0.80E-01    0.8     0.00000856     -1102.9219246247 -8.58E-07
    23 OT DIIS     0.80E-01    0.8     0.00000856     -1102.9219257460 -1.12E-06
    24 OT SD       0.80E-01    0.8     0.00000856     -1102.9219260796 -3.34E-07
    25 OT SD       0.80E-01    0.8     0.00000857     -1102.9219282966 -2.22E-06
    26 OT SD       0.80E-01    0.8     0.00000860     -1102.9219305184 -2.22E-06
    27 OT SD       0.80E-01    0.8     0.00000868     -1102.9219327428 -2.22E-06
    28 OT SD       0.80E-01    0.8     0.00000908     -1102.9219349497 -2.21E-06
    29 OT SD       0.80E-01    0.8     0.00001134     -1102.9219370007 -2.05E-06
    30 OT SD       0.80E-01    0.8     0.00002094     -1102.9219379573 -9.57E-07

  Leaving inner SCF loop after reaching    30 steps.


  Electronic density on regular grids:       -512.0000000324       -0.0000000324
  Core density on regular grids:              512.9999999831       -0.0000000169
  Total charge density on r-space grids:        0.9999999507
  Total charge density g-space grids:           0.9999999507

  Overlap energy of the core charge distribution:               0.00000234379921
  Self energy of the core charge distribution:              -2839.62839375007934
  Core Hamiltonian energy:                                    829.72064869428891
  Hartree energy:                                            1179.00320756791461
  Exchange-correlation energy:                               -271.76899999805374
  Dispersion energy:                                           -0.24840281520455

  Total energy:                                             -1102.92193795733488

  outer SCF iter =    3 RMS gradient =   0.21E-04 energy =      -1102.9219379573

  ----------------------------------- OT ---------------------------------------
  Minimizer      : DIIS                : direct inversion
                                         in the iterative subspace
                                         using   7 DIIS vectors
                                         safer DIIS on
  Preconditioner : FULL_SINGLE_INVERSE : inversion of 
                                         H + eS - 2*(Sc)(c^T*H*c+const)(Sc)^T
  Precond_solver : DEFAULT
  stepsize       :    0.08000000                  energy_gap     :    0.08000000
  eps_taylor     :   0.10000E-15                  max_taylor     :             4
  ----------------------------------- OT ---------------------------------------

  Step     Update method      Time    Convergence         Total energy    Change
  ------------------------------------------------------------------------------
     1 OT DIIS     0.80E-01    1.8     0.00005098     -1102.9219313022  6.66E-06
     2 OT DIIS     0.80E-01    0.8     0.00013498     -1102.9218697908  6.15E-05
     3 OT DIIS     0.80E-01    0.8     0.00000984     -1102.9219445358 -7.47E-05
     4 OT DIIS     0.80E-01    0.8     0.00000870     -1102.9219453420 -8.06E-07
     5 OT SD       0.80E-01    0.8     0.00000870     -1102.9219456918 -3.50E-07
     6 OT SD       0.80E-01    0.8     0.00000871     -1102.9219479779 -2.29E-06
     7 OT SD       0.80E-01    0.8     0.00000875     -1102.9219502641 -2.29E-06
     8 OT SD       0.80E-01    0.8     0.00000900     -1102.9219525360 -2.27E-06
     9 OT DIIS     0.80E-01    0.8     0.00001045     -1102.9219547058 -2.17E-06
    10 OT DIIS     0.80E-01    0.8     0.00001174     -1102.9219598103 -5.10E-06
    11 OT SD       0.80E-01    0.8     0.00001090     -1102.9219700295 -1.02E-05
    12 OT SD       0.80E-01    0.8     0.00001040     -1102.9219726354 -2.61E-06
    13 OT SD       0.80E-01    0.8     0.00001341     -1102.9219746174 -1.98E-06
    14 OT DIIS     0.80E-01    0.8     0.00002386     -1102.9219750819 -4.64E-07
    15 OT DIIS     0.80E-01    0.8     0.00000856     -1102.9219788121 -3.73E-06
    16 OT DIIS     0.80E-01    0.8     0.00000814     -1102.9219946594 -1.58E-05
    17 OT DIIS     0.80E-01    0.8     0.00000957     -1102.9220223067 -2.76E-05
    18 OT SD       0.80E-01    0.8     0.00000629     -1102.9220288442 -6.54E-06
    19 OT DIIS     0.80E-01    0.8     0.00000899     -1102.9220292202 -3.76E-07
    20 OT DIIS     0.80E-01    0.8     0.00000452     -1102.9220298620 -6.42E-07
    21 OT DIIS     0.80E-01    0.8     0.00000406     -1102.9220320857 -2.22E-06
    22 OT DIIS     0.80E-01    0.8     0.00000487     -1102.9220313622  7.24E-07
    23 OT DIIS     0.80E-01    0.8     0.00000350     -1102.9220335624 -2.20E-06
    24 OT DIIS     0.80E-01    0.8     0.00000285     -1102.9220350824 -1.52E-06
    25 OT DIIS     0.80E-01    0.8     0.00000256     -1102.9220358192 -7.37E-07
    26 OT DIIS     0.80E-01    0.8     0.00000241     -1102.9220365934 -7.74E-07
    27 OT DIIS     0.80E-01    0.8     0.00000212     -1102.9220373597 -7.66E-07
    28 OT DIIS     0.80E-01    0.8     0.00000190     -1102.9220378837 -5.24E-07
    29 OT DIIS     0.80E-01    0.8     0.00000177     -1102.9220383825 -4.99E-07
    30 OT DIIS     0.80E-01    0.8     0.00000187     -1102.9220387021 -3.20E-07

  Leaving inner SCF loop after reaching    30 steps.


  Electronic density on regular grids:       -511.9999999910        0.0000000090
  Core density on regular grids:              512.9999999831       -0.0000000169
  Total charge density on r-space grids:        0.9999999921
  Total charge density g-space grids:           0.9999999921

  Overlap energy of the core charge distribution:               0.00000234379921
  Self energy of the core charge distribution:              -2839.62839375007934
  Core Hamiltonian energy:                                    829.72401490048014
  Hartree energy:                                            1179.00034108553314
  Exchange-correlation energy:                               -271.76960046659428
  Dispersion energy:                                           -0.24840281520455

  Total energy:                                             -1102.92203870206572

  outer SCF iter =    4 RMS gradient =   0.19E-05 energy =      -1102.9220387021

  ----------------------------------- OT ---------------------------------------
  Minimizer      : DIIS                : direct inversion
                                         in the iterative subspace
                                         using   7 DIIS vectors
                                         safer DIIS on
  Preconditioner : FULL_SINGLE_INVERSE : inversion of 
                                         H + eS - 2*(Sc)(c^T*H*c+const)(Sc)^T
  Precond_solver : DEFAULT
  stepsize       :    0.08000000                  energy_gap     :    0.08000000
  eps_taylor     :   0.10000E-15                  max_taylor     :             4
  ----------------------------------- OT ---------------------------------------

  Step     Update method      Time    Convergence         Total energy    Change
  ------------------------------------------------------------------------------
     1 OT DIIS     0.80E-01    1.8     0.00000152     -1102.9220392214 -5.19E-07
     2 OT DIIS     0.80E-01    0.8     0.00000186     -1102.9220392762 -5.47E-08
     3 OT DIIS     0.80E-01    0.8     0.00000138     -1102.9220393006 -2.44E-08
     4 OT DIIS     0.80E-01    0.8     0.00000139     -1102.9220393968 -9.62E-08
     5 OT DIIS     0.80E-01    0.8     0.00000120     -1102.9220396311 -2.34E-07
     6 OT DIIS     0.80E-01    0.8     0.00000118     -1102.9220397390 -1.08E-07
     7 OT DIIS     0.80E-01    0.8     0.00000112     -1102.9220400105 -2.72E-07
     8 OT DIIS     0.80E-01    0.8     0.00000097     -1102.9220403068 -2.96E-07

  *** SCF run converged in     8 steps ***


  Electronic density on regular grids:       -511.9999999885        0.0000000115
  Core density on regular grids:              512.9999999831       -0.0000000169
  Total charge density on r-space grids:        0.9999999946
  Total charge density g-space grids:           0.9999999946

  Overlap energy of the core charge distribution:               0.00000234379921
  Self energy of the core charge distribution:              -2839.62839375007934
  Core Hamiltonian energy:                                    829.72403016450858
  Hartree energy:                                            1179.00032893239722
  Exchange-correlation energy:                               -271.76960518218277
  Dispersion energy:                                           -0.24840281520455

  Total energy:                                             -1102.92204030676180

  outer SCF iter =    5 RMS gradient =   0.97E-06 energy =      -1102.9220403068
  outer SCF loop converged in   5 iterations or  128 steps

  
  Eigenvalues of the occupied subspace spin            1
 ---------------------------------------------
      -0.88777676     -0.85815195     -0.81952552     -0.81810050
      -0.81338564     -0.81318801     -0.81023111     -0.80881976
      -0.80804947     -0.80680994     -0.80467850     -0.80391723
      -0.80287330     -0.80125196     -0.80005980     -0.79744376
      -0.79652783     -0.79416210     -0.79359611     -0.79268450
      -0.79122307     -0.79072501     -0.79045068     -0.78984082
      -0.78872048     -0.78685412     -0.78635413     -0.78464027
      -0.78377598     -0.78235510     -0.78177910     -0.78073839
      -0.78043855     -0.77930385     -0.77858991     -0.77783370
      -0.77695556     -0.77677761     -0.77595182     -0.77504777
      -0.77447592     -0.77336074     -0.77229594     -0.77108602
      -0.77042788     -0.76966241     -0.76836647     -0.76790952
      -0.76638383     -0.76616567     -0.76472314     -0.76328389
      -0.76154086     -0.76062621     -0.75964676     -0.75917291
      -0.75882046     -0.75635696     -0.75261791     -0.75027288
      -0.74936473     -0.74769893     -0.74452785     -0.74225835
      -0.42833246     -0.41954679     -0.39074255     -0.37618875
      -0.36968984     -0.36799040     -0.36754575     -0.36441521
      -0.36352169     -0.36237873     -0.36188007     -0.36038099
      -0.35951569     -0.35908697     -0.35784022     -0.35679447
      -0.35584001     -0.35488352     -0.35353853     -0.35187619
      -0.35179204     -0.35123743     -0.35002199     -0.34945281
      -0.34824878     -0.34617489     -0.34478987     -0.34462907
      -0.34326856     -0.34218338     -0.34097030     -0.34092223
      -0.33959367     -0.33906654     -0.33724737     -0.33685548
      -0.33623001     -0.33513810     -0.33422279     -0.33309690
      -0.33187684     -0.33076867     -0.33023963     -0.32985222
      -0.32931030     -0.32842960     -0.32804964     -0.32722788
      -0.32707611     -0.32538563     -0.32531990     -0.32512867
      -0.32310267     -0.32225018     -0.32079712     -0.31739847
      -0.31531360     -0.31447939     -0.31440236     -0.31338465
      -0.30794469     -0.30275828     -0.29881832     -0.29538403
      -0.29437137     -0.27973057     -0.26405800     -0.26016614
      -0.25773164     -0.25436914     -0.25129951     -0.25033496
      -0.24851295     -0.24647837     -0.24391248     -0.24365258
      -0.24024645     -0.23966332     -0.23538411     -0.23496630
      -0.23281534     -0.22993278     -0.22885389     -0.22867556
      -0.22807016     -0.22615307     -0.22422780     -0.22193168
      -0.22069243     -0.21955631     -0.21706809     -0.21534940
      -0.21306963     -0.21210406     -0.21122567     -0.20983834
      -0.20765479     -0.20696115     -0.20519151     -0.20363166
      -0.20281239     -0.20112845     -0.19980368     -0.19906554
      -0.19792949     -0.19619720     -0.19463986     -0.19391577
      -0.19150838     -0.19113422     -0.18884756     -0.18781315
      -0.18665408     -0.18570990     -0.18399807     -0.18332002
      -0.18196586     -0.17995590     -0.17886256     -0.17813404
      -0.17716426     -0.17654987     -0.17541157     -0.17304020
      -0.17161480     -0.16700819     -0.16660965     -0.16602736
      -0.16306914     -0.16055893     -0.15739134     -0.15465973
      -0.15353810     -0.14990966     -0.14828535     -0.14699331
      -0.14396723     -0.14285019     -0.14222963     -0.14196317
      -0.14112559     -0.13966975     -0.13880606     -0.13839418
      -0.13813429     -0.13764627     -0.13677958     -0.13635947
      -0.13523726     -0.13478464     -0.13381957     -0.13278569
      -0.13176849     -0.13147776     -0.13096790     -0.13008787
      -0.12867997     -0.12819177     -0.12775244     -0.12691653
      -0.12625806     -0.12585528     -0.12497432     -0.12448505
      -0.12351273     -0.12324386     -0.12279961     -0.12199081
      -0.12164571     -0.12080018     -0.12017244     -0.11987579
      -0.11919156     -0.11763129     -0.11691869     -0.11592971
      -0.11535403     -0.11441066     -0.11347573     -0.11298671
      -0.11223525     -0.11182641     -0.11128189     -0.11031126
      -0.11000025     -0.10925172     -0.10837570     -0.10786772
      -0.10729313     -0.10613040     -0.10595806     -0.10548475
 Fermi Energy [eV] :   -2.870386
  
  Lowest Eigenvalues of the unoccupied subspace spin            1
 -----------------------------------------------------
  Reached convergence in           69  iterations 
      -0.10722601      0.07795006      0.09570531      0.12190305
  
 HOMO - LUMO gap [eV] :   -0.047382

 ENERGY| Total FORCE_EVAL ( QS ) energy [a.u.]:            -1102.922040470122738

 MD_INI| MD initialization
 MD_INI| Potential energy [hartree]                          -0.110292204047E+04
 MD_INI| Kinetic energy [hartree]                             0.275037912564E+00
 MD_INI| Temperature [K]                                              300.000000
 MD_INI| Cell volume [bohr^3]                                 1.292889458088E+04
 MD_INI| Cell volume [ang^3]                                  1.915864488000E+03
 MD_INI| Cell lengths [bohr]      2.34703986E+01  2.34703986E+01  2.34703986E+01
 MD_INI| Cell lengths [ang]       1.24200000E+01  1.24200000E+01  1.24200000E+01
 MD_INI| Cell angles [deg]        9.00000000E+01  9.00000000E+01  9.00000000E+01

 Number of electrons:                                                        512
 Number of occupied orbitals:                                                256
 Number of molecular orbitals:                                               256

 Number of orbital functions:                                               1477
 Number of independent orbital functions:                                   1477

 Extrapolation method: ASPC


 SCF WAVEFUNCTION OPTIMIZATION

  ----------------------------------- OT ---------------------------------------
  Minimizer      : DIIS                : direct inversion
                                         in the iterative subspace
                                         using   7 DIIS vectors
                                         safer DIIS on
  Preconditioner : FULL_SINGLE_INVERSE : inversion of 
                                         H + eS - 2*(Sc)(c^T*H*c+const)(Sc)^T
  Precond_solver : DEFAULT
  stepsize       :    0.08000000                  energy_gap     :    0.08000000
  eps_taylor     :   0.10000E-15                  max_taylor     :             4
  ----------------------------------- OT ---------------------------------------

  Step     Update method      Time    Convergence         Total energy    Change
  ------------------------------------------------------------------------------
     1 OT DIIS     0.80E-01    0.7     0.00033016     -1102.9204156201 -1.10E+03
     2 OT DIIS     0.80E-01    0.8     0.00019487     -1102.9229342779 -2.52E-03
     3 OT DIIS     0.80E-01    0.8     0.00013485     -1102.9241312487 -1.20E-03
     4 OT DIIS     0.80E-01    0.8     0.00010787     -1102.9243706948 -2.39E-04
     5 OT DIIS     0.80E-01    0.8     0.00006041     -1102.9244660939 -9.54E-05
     6 OT DIIS     0.80E-01    0.8     0.00002899     -1102.9244949036 -2.88E-05
     7 OT DIIS     0.80E-01    0.8     0.00001701     -1102.9245112348 -1.63E-05
     8 OT DIIS     0.80E-01    0.8     0.00000996     -1102.9245149550 -3.72E-06
     9 OT DIIS     0.80E-01    0.8     0.00000869     -1102.9245169355 -1.98E-06
    10 OT DIIS     0.80E-01    0.8     0.00000672     -1102.9245182594 -1.32E-06
    11 OT DIIS     0.80E-01    0.8     0.00000577     -1102.9245204370 -2.18E-06
    12 OT DIIS     0.80E-01    0.8     0.00000523     -1102.9245224466 -2.01E-06
    13 OT DIIS     0.80E-01    0.8     0.00000503     -1102.9245236731 -1.23E-06
    14 OT DIIS     0.80E-01    0.8     0.00000481     -1102.9245248586 -1.19E-06
    15 OT DIIS     0.80E-01    0.8     0.00000364     -1102.9245259551 -1.10E-06
    16 OT DIIS     0.80E-01    0.8     0.00000344     -1102.9245267701 -8.15E-07
    17 OT DIIS     0.80E-01    0.8     0.00000289     -1102.9245275211 -7.51E-07
    18 OT DIIS     0.80E-01    0.8     0.00000269     -1102.9245278019 -2.81E-07
    19 OT DIIS     0.80E-01    0.8     0.00000226     -1102.9245282840 -4.82E-07
    20 OT DIIS     0.80E-01    0.8     0.00000221     -1102.9245285995 -3.16E-07
    21 OT DIIS     0.80E-01    0.8     0.00000210     -1102.9245290085 -4.09E-07
    22 OT DIIS     0.80E-01    0.8     0.00000212     -1102.9245292511 -2.43E-07
    23 OT DIIS     0.80E-01    0.8     0.00000173     -1102.9245295112 -2.60E-07
    24 OT DIIS     0.80E-01    0.8     0.00000153     -1102.9245297652 -2.54E-07
    25 OT DIIS     0.80E-01    0.8     0.00000137     -1102.9245299184 -1.53E-07
    26 OT DIIS     0.80E-01    0.8     0.00000126     -1102.9245300094 -9.10E-08
    27 OT DIIS     0.80E-01    0.8     0.00000108     -1102.9245301022 -9.28E-08
    28 OT DIIS     0.80E-01    0.8     0.00000103     -1102.9245301548 -5.25E-08
    29 OT DIIS     0.80E-01    0.8     0.00000100     -1102.9245302083 -5.36E-08

  *** SCF run converged in    29 steps ***


  Electronic density on regular grids:       -511.9999999886        0.0000000114
  Core density on regular grids:              512.9999999831       -0.0000000169
  Total charge density on r-space grids:        0.9999999945
  Total charge density g-space grids:           0.9999999945

  Overlap energy of the core charge distribution:               0.00000226263346
  Self energy of the core charge distribution:              -2839.62839375007934
  Core Hamiltonian energy:                                    829.47637929020709
  Hartree energy:                                            1179.17442164432077
  Exchange-correlation energy:                               -271.69856803523498
  Dispersion energy:                                           -0.24837162017657

  Total energy:                                             -1102.92453020832932

  outer SCF iter =    1 RMS gradient =   0.10E-05 energy =      -1102.9245302083
  outer SCF loop converged in   1 iterations or   29 steps


 ENERGY| Total FORCE_EVAL ( QS ) energy [a.u.]:            -1102.924530235449993

 MD| ***************************************************************************
 MD| Step number                                                               1
 MD| Time [fs]                                                          0.500000
 MD| Conserved quantity [hartree]                            -0.110264707890E+04
 MD| ---------------------------------------------------------------------------
 MD|                                          Instantaneous             Averages
 MD| CPU time per MD step [s]                    135.135020           135.135020
 MD| Energy drift per atom [K]          -0.124906569145E+00   0.000000000000E+00
 MD| Potential energy [hartree]         -0.110292453024E+04  -0.110292453024E+04
 MD| Kinetic energy [hartree]            0.278040332920E+00   0.278040332920E+00
 MD| Temperature [K]                             303.274916           303.274916
 MD| ***************************************************************************

 Number of electrons:                                                        512
 Number of occupied orbitals:                                                256
 Number of molecular orbitals:                                               256

 Number of orbital functions:                                               1477
 Number of independent orbital functions:                                   1477

 Extrapolation method: ASPC


 SCF WAVEFUNCTION OPTIMIZATION

  ----------------------------------- OT ---------------------------------------
  Minimizer      : DIIS                : direct inversion
                                         in the iterative subspace
                                         using   7 DIIS vectors
                                         safer DIIS on
  Preconditioner : FULL_SINGLE_INVERSE : inversion of 
                                         H + eS - 2*(Sc)(c^T*H*c+const)(Sc)^T
  Precond_solver : DEFAULT
  stepsize       :    0.08000000                  energy_gap     :    0.08000000
  eps_taylor     :   0.10000E-15                  max_taylor     :             4
  ----------------------------------- OT ---------------------------------------

  Step     Update method      Time    Convergence         Total energy    Change
  ------------------------------------------------------------------------------
     1 OT DIIS     0.80E-01    0.7     0.00019634     -1102.9373925089 -1.10E+03
     2 OT DIIS     0.80E-01    0.8     0.00011755     -1102.9382450164 -8.53E-04
     3 OT DIIS     0.80E-01    0.8     0.00014325     -1102.9385060660 -2.61E-04
     4 OT DIIS     0.80E-01    0.8     0.00007253     -1102.9386623729 -1.56E-04
     5 OT DIIS     0.80E-01    0.8     0.00003758     -1102.9387076931 -4.53E-05
     6 OT DIIS     0.80E-01    0.8     0.00001739     -1102.9387226570 -1.50E-05
     7 OT DIIS     0.80E-01    0.8     0.00001229     -1102.9387287071 -6.05E-06
     8 OT DIIS     0.80E-01    0.8     0.00000806     -1102.9387304832 -1.78E-06
     9 OT DIIS     0.80E-01    0.8     0.00000514     -1102.9387315313 -1.05E-06
    10 OT DIIS     0.80E-01    0.8     0.00000450     -1102.9387321162 -5.85E-07
    11 OT DIIS     0.80E-01    0.8     0.00000409     -1102.9387328055 -6.89E-07
    12 OT DIIS     0.80E-01    0.8     0.00000429     -1102.9387335221 -7.17E-07
    13 OT DIIS     0.80E-01    0.8     0.00000389     -1102.9387342277 -7.06E-07
    14 OT DIIS     0.80E-01    0.8     0.00000360     -1102.9387348631 -6.35E-07
    15 OT DIIS     0.80E-01    0.8     0.00000331     -1102.9387360201 -1.16E-06
    16 OT DIIS     0.80E-01    0.8     0.00000328     -1102.9387369039 -8.84E-07
    17 OT DIIS     0.80E-01    0.8     0.00000297     -1102.9387378694 -9.66E-07
    18 OT DIIS     0.80E-01    0.8     0.00000269     -1102.9387388084 -9.39E-07
    19 OT DIIS     0.80E-01    0.8     0.00000252     -1102.9387397003 -8.92E-07
    20 OT DIIS     0.80E-01    0.8     0.00000254     -1102.9387403363 -6.36E-07
    21 OT DIIS     0.80E-01    0.8     0.00000251     -1102.9387407705 -4.34E-07
    22 OT DIIS     0.80E-01    0.8     0.00000225     -1102.9387412431 -4.73E-07
    23 OT DIIS     0.80E-01    0.8     0.00000213     -1102.9387418474 -6.04E-07
    24 OT DIIS     0.80E-01    0.8     0.00000206     -1102.9387423696 -5.22E-07
    25 OT DIIS     0.80E-01    0.8     0.00000196     -1102.9387427638 -3.94E-07
    26 OT DIIS     0.80E-01    0.8     0.00000177     -1102.9387431575 -3.94E-07
    27 OT DIIS     0.80E-01    0.8     0.00000170     -1102.9387435457 -3.88E-07
    28 OT DIIS     0.80E-01    0.8     0.00000170     -1102.9387438638 -3.18E-07
    29 OT DIIS     0.80E-01    0.8     0.00000175     -1102.9387440662 -2.02E-07
    30 OT DIIS     0.80E-01    0.8     0.00000156     -1102.9387443345 -2.68E-07

  Leaving inner SCF loop after reaching    30 steps.


  Electronic density on regular grids:       -511.9999999888        0.0000000112
  Core density on regular grids:              512.9999999831       -0.0000000169
  Total charge density on r-space grids:        0.9999999943
  Total charge density g-space grids:           0.9999999943

  Overlap energy of the core charge distribution:               0.00000201843167
  Self energy of the core charge distribution:              -2839.62839375007934
  Core Hamiltonian energy:                                    828.94306763702969
  Hartree energy:                                            1179.54120024947656
  Exchange-correlation energy:                               -271.54628891201418
  Dispersion energy:                                           -0.24833157730513

  Total energy:                                             -1102.93874433446081

  outer SCF iter =    1 RMS gradient =   0.16E-05 energy =      -1102.9387443345

  ----------------------------------- OT ---------------------------------------
  Minimizer      : DIIS                : direct inversion
                                         in the iterative subspace
                                         using   7 DIIS vectors
                                         safer DIIS on
  Preconditioner : FULL_SINGLE_INVERSE : inversion of 
                                         H + eS - 2*(Sc)(c^T*H*c+const)(Sc)^T
  Precond_solver : DEFAULT
  stepsize       :    0.08000000                  energy_gap     :    0.08000000
  eps_taylor     :   0.10000E-15                  max_taylor     :             4
  ----------------------------------- OT ---------------------------------------

  Step     Update method      Time    Convergence         Total energy    Change
  ------------------------------------------------------------------------------
     1 OT DIIS     0.80E-01    1.8     0.00000146     -1102.9387445344 -2.00E-07
     2 OT DIIS     0.80E-01    0.8     0.00000163     -1102.9387445881 -5.37E-08
     3 OT DIIS     0.80E-01    0.8     0.00000134     -1102.9387446125 -2.44E-08
     4 OT DIIS     0.80E-01    0.8     0.00000137     -1102.9387447004 -8.79E-08
     5 OT DIIS     0.80E-01    0.8     0.00000115     -1102.9387451814 -4.81E-07
     6 OT DIIS     0.80E-01    0.8     0.00000099     -1102.9387453526 -1.71E-07

  *** SCF run converged in     6 steps ***


  Electronic density on regular grids:       -511.9999999887        0.0000000113
  Core density on regular grids:              512.9999999831       -0.0000000169
  Total charge density on r-space grids:        0.9999999944
  Total charge density g-space grids:           0.9999999944

  Overlap energy of the core charge distribution:               0.00000201843167
  Self energy of the core charge distribution:              -2839.62839375007934
  Core Hamiltonian energy:                                    828.94299748931689
  Hartree energy:                                            1179.54125546151977
  Exchange-correlation energy:                               -271.54627499445030
  Dispersion energy:                                           -0.24833157730513

  Total energy:                                             -1102.93874535256646

  outer SCF iter =    2 RMS gradient =   0.99E-06 energy =      -1102.9387453526
  outer SCF loop converged in   2 iterations or   36 steps


 ENERGY| Total FORCE_EVAL ( QS ) energy [a.u.]:            -1102.938745439161949

 MD| ***************************************************************************
 MD| Step number                                                               2
 MD| Time [fs]                                                          1.000000
 MD| Conserved quantity [hartree]                            -0.110264739646E+04
 MD| ---------------------------------------------------------------------------
 MD|                                          Instantaneous             Averages
 MD| CPU time per MD step [s]                     31.045685            83.090353
 MD| Energy drift per atom [K]          -0.644472963806E+00  -0.322236481903E+00
 MD| Potential energy [hartree]         -0.110293874544E+04  -0.110293163784E+04
 MD| Kinetic energy [hartree]            0.281145897957E+00   0.279593115438E+00
 MD| Temperature [K]                             306.662338           304.968627
 MD| ***************************************************************************

 Number of electrons:                                                        512
 Number of occupied orbitals:                                                256
 Number of molecular orbitals:                                               256

 Number of orbital functions:                                               1477
 Number of independent orbital functions:                                   1477

 Extrapolation method: ASPC


 SCF WAVEFUNCTION OPTIMIZATION

  ----------------------------------- OT ---------------------------------------
  Minimizer      : DIIS                : direct inversion
                                         in the iterative subspace
                                         using   7 DIIS vectors
                                         safer DIIS on
  Preconditioner : FULL_SINGLE_INVERSE : inversion of 
                                         H + eS - 2*(Sc)(c^T*H*c+const)(Sc)^T
  Precond_solver : DEFAULT
  stepsize       :    0.08000000                  energy_gap     :    0.08000000
  eps_taylor     :   0.10000E-15                  max_taylor     :             4
  ----------------------------------- OT ---------------------------------------

  Step     Update method      Time    Convergence         Total energy    Change
  ------------------------------------------------------------------------------
     1 OT DIIS     0.80E-01    0.7     0.00018837     -1102.9606483510 -1.10E+03
     2 OT DIIS     0.80E-01    0.8     0.00011198     -1102.9614276646 -7.79E-04
     3 OT DIIS     0.80E-01    0.8     0.00010010     -1102.9617046880 -2.77E-04
     4 OT DIIS     0.80E-01    0.8     0.00004949     -1102.9618408070 -1.36E-04
     5 OT DIIS     0.80E-01    0.8     0.00002486     -1102.9618775585 -3.68E-05
     6 OT DIIS     0.80E-01    0.8     0.00002371     -1102.9618845433 -6.98E-06
     7 OT DIIS     0.80E-01    0.8     0.00001064     -1102.9618906746 -6.13E-06
     8 OT DIIS     0.80E-01    0.8     0.00000895     -1102.9618925351 -1.86E-06
     9 OT DIIS     0.80E-01    0.8     0.00000625     -1102.9618937296 -1.19E-06
    10 OT DIIS     0.80E-01    0.8     0.00000558     -1102.9618946623 -9.33E-07
    11 OT DIIS     0.80E-01    0.8     0.00000493     -1102.9618958576 -1.20E-06
    12 OT DIIS     0.80E-01    0.8     0.00000469     -1102.9618977420 -1.88E-06
    13 OT DIIS     0.80E-01    0.8     0.00000397     -1102.9618990947 -1.35E-06
    14 OT DIIS     0.80E-01    0.8     0.00000411     -1102.9619005115 -1.42E-06
    15 OT DIIS     0.80E-01    0.8     0.00000319     -1102.9619015122 -1.00E-06
    16 OT DIIS     0.80E-01    0.8     0.00000294     -1102.9619021284 -6.16E-07
    17 OT DIIS     0.80E-01    0.8     0.00000247     -1102.9619025925 -4.64E-07
    18 OT DIIS     0.80E-01    0.8     0.00000199     -1102.9619028860 -2.93E-07
    19 OT DIIS     0.80E-01    0.8     0.00000171     -1102.9619030949 -2.09E-07
    20 OT DIIS     0.80E-01    0.8     0.00000159     -1102.9619032490 -1.54E-07
    21 OT DIIS     0.80E-01    0.8     0.00000146     -1102.9619033821 -1.33E-07
    22 OT DIIS     0.80E-01    0.8     0.00000146     -1102.9619034884 -1.06E-07
    23 OT DIIS     0.80E-01    0.8     0.00000137     -1102.9619035933 -1.05E-07
    24 OT DIIS     0.80E-01    0.8     0.00000126     -1102.9619036921 -9.88E-08
    25 OT DIIS     0.80E-01    0.8     0.00000120     -1102.9619037835 -9.14E-08
    26 OT DIIS     0.80E-01    0.8     0.00000105     -1102.9619038572 -7.37E-08
    27 OT DIIS     0.80E-01    0.8     0.00000099     -1102.9619039259 -6.87E-08

  *** SCF run converged in    27 steps ***


  Electronic density on regular grids:       -511.9999999886        0.0000000114
  Core density on regular grids:              512.9999999831       -0.0000000169
  Total charge density on r-space grids:        0.9999999945
  Total charge density g-space grids:           0.9999999945

  Overlap energy of the core charge distribution:               0.00000169032142
  Self energy of the core charge distribution:              -2839.62839375007934
  Core Hamiltonian energy:                                    828.24069699105530
  Hartree energy:                                            1180.02024002637836
  Exchange-correlation energy:                               -271.34617499289192
  Dispersion energy:                                           -0.24827389071982

  Total energy:                                             -1102.96190392593621

  outer SCF iter =    1 RMS gradient =   0.99E-06 energy =      -1102.9619039259
  outer SCF loop converged in   1 iterations or   27 steps


 ENERGY| Total FORCE_EVAL ( QS ) energy [a.u.]:            -1102.961903986186144

 MD| ***************************************************************************
 MD| Step number                                                               3
 MD| Time [fs]                                                          1.500000
 MD| Conserved quantity [hartree]                            -0.110264786628E+04
 MD| ---------------------------------------------------------------------------
 MD|                                          Instantaneous             Averages
 MD| CPU time per MD step [s]                     23.621074            63.267260
 MD| Energy drift per atom [K]          -0.141316279745E+01  -0.685878587085E+00
 MD| Potential energy [hartree]         -0.110296190399E+04  -0.110294172655E+04
 MD| Kinetic energy [hartree]            0.301224026681E+00   0.286803419186E+00
 MD| Temperature [K]                             328.562732           312.833329
 MD| ***************************************************************************

 Number of electrons:                                                        512
 Number of occupied orbitals:                                                256
 Number of molecular orbitals:                                               256

 Number of orbital functions:                                               1477
 Number of independent orbital functions:                                   1477

 Extrapolation method: ASPC


 SCF WAVEFUNCTION OPTIMIZATION

  ----------------------------------- OT ---------------------------------------
  Minimizer      : DIIS                : direct inversion
                                         in the iterative subspace
                                         using   7 DIIS vectors
                                         safer DIIS on
  Preconditioner : FULL_SINGLE_INVERSE : inversion of 
                                         H + eS - 2*(Sc)(c^T*H*c+const)(Sc)^T
  Precond_solver : DEFAULT
  stepsize       :    0.08000000                  energy_gap     :    0.08000000
  eps_taylor     :   0.10000E-15                  max_taylor     :             4
  ----------------------------------- OT ---------------------------------------

  Step     Update method      Time    Convergence         Total energy    Change
  ------------------------------------------------------------------------------
     1 OT DIIS     0.80E-01    0.7     0.00019701     -1102.9793116233 -1.10E+03
     2 OT DIIS     0.80E-01    0.8     0.00012726     -1102.9801755377 -8.64E-04
     3 OT DIIS     0.80E-01    0.8     0.00017951     -1102.9804113667 -2.36E-04
     4 OT DIIS     0.80E-01    0.8     0.00006498     -1102.9806548474 -2.43E-04
     5 OT DIIS     0.80E-01    0.8     0.00003629     -1102.9807109705 -5.61E-05
     6 OT DIIS     0.80E-01    0.8     0.00001710     -1102.9807253193 -1.43E-05
     7 OT DIIS     0.80E-01    0.8     0.00001291     -1102.9807315244 -6.21E-06
     8 OT DIIS     0.80E-01    0.8     0.00000836     -1102.9807336226 -2.10E-06
     9 OT DIIS     0.80E-01    0.8     0.00000630     -1102.9807349371 -1.31E-06
    10 OT DIIS     0.80E-01    0.8     0.00000557     -1102.9807358309 -8.94E-07
    11 OT DIIS     0.80E-01    0.8     0.00000516     -1102.9807370396 -1.21E-06
    12 OT DIIS     0.80E-01    0.8     0.00000555     -1102.9807384401 -1.40E-06
    13 OT DIIS     0.80E-01    0.8     0.00000477     -1102.9807398336 -1.39E-06
    14 OT DIIS     0.80E-01    0.8     0.00000453     -1102.9807410995 -1.27E-06
    15 OT DIIS     0.80E-01    0.8     0.00000411     -1102.9807432154 -2.12E-06
    16 OT DIIS     0.80E-01    0.8     0.00000410     -1102.9807443878 -1.17E-06
    17 OT DIIS     0.80E-01    0.8     0.00000378     -1102.9807457581 -1.37E-06
    18 OT DIIS     0.80E-01    0.8     0.00000364     -1102.9807466609 -9.03E-07
    19 OT DIIS     0.80E-01    0.8     0.00000354     -1102.9807476343 -9.73E-07
    20 OT DIIS     0.80E-01    0.8     0.00000355     -1102.9807483434 -7.09E-07
    21 OT DIIS     0.80E-01    0.8     0.00000352     -1102.9807488213 -4.78E-07
    22 OT DIIS     0.80E-01    0.8     0.00000346     -1102.9807494207 -5.99E-07
    23 OT DIIS     0.80E-01    0.8     0.00000345     -1102.9807501544 -7.34E-07
    24 OT DIIS     0.80E-01    0.8     0.00000344     -1102.9807507878 -6.33E-07
    25 OT DIIS     0.80E-01    0.8     0.00000343     -1102.9807512892 -5.01E-07
    26 OT DIIS     0.80E-01    0.8     0.00000343     -1102.9807515590 -2.70E-07
    27 OT SD       0.80E-01    0.8     0.00000343     -1102.9807516702 -1.11E-07
    28 OT SD       0.80E-01    0.8     0.00000343     -1102.9807520259 -3.56E-07
    29 OT SD       0.80E-01    0.8     0.00000344     -1102.9807523823 -3.56E-07
    30 OT SD       0.80E-01    0.8     0.00000345     -1102.9807527397 -3.57E-07

  Leaving inner SCF loop after reaching    30 steps.


  Electronic density on regular grids:       -511.9999999885        0.0000000115
  Core density on regular grids:              512.9999999832       -0.0000000168
  Total charge density on r-space grids:        0.9999999946
  Total charge density g-space grids:           0.9999999946

  Overlap energy of the core charge distribution:               0.00000141140116
  Self energy of the core charge distribution:              -2839.62839375007934
  Core Hamiltonian energy:                                    827.49266805426146
  Hartree energy:                                            1180.53503008959842
  Exchange-correlation energy:                               -271.13185113107812
  Dispersion energy:                                           -0.24820741382956

  Total energy:                                             -1102.98075273972586

  outer SCF iter =    1 RMS gradient =   0.34E-05 energy =      -1102.9807527397

  ----------------------------------- OT ---------------------------------------
  Minimizer      : DIIS                : direct inversion
                                         in the iterative subspace
                                         using   7 DIIS vectors
                                         safer DIIS on
  Preconditioner : FULL_SINGLE_INVERSE : inversion of 
                                         H + eS - 2*(Sc)(c^T*H*c+const)(Sc)^T
  Precond_solver : DEFAULT
  stepsize       :    0.08000000                  energy_gap     :    0.08000000
  eps_taylor     :   0.10000E-15                  max_taylor     :             4
  ----------------------------------- OT ---------------------------------------

  Step     Update method      Time    Convergence         Total energy    Change
  ------------------------------------------------------------------------------
     1 OT DIIS     0.80E-01    1.8     0.00000347     -1102.9807530982 -3.58E-07
     2 OT DIIS     0.80E-01    0.8     0.00000358     -1102.9807534553 -3.57E-07
     3 OT SD       0.80E-01    0.8     0.00000346     -1102.9807535556 -1.00E-07
     4 OT SD       0.80E-01    0.8     0.00000348     -1102.9807539183 -3.63E-07
     5 OT SD       0.80E-01    0.8     0.00000350     -1102.9807542830 -3.65E-07
     6 OT SD       0.80E-01    0.8     0.00000357     -1102.9807546485 -3.66E-07
     7 OT SD       0.80E-01    0.8     0.00000388     -1102.9807550086 -3.60E-07
     8 OT SD       0.80E-01    0.8     0.00000519     -1102.9807553283 -3.20E-07
     9 OT SD       0.80E-01    0.8     0.00000961     -1102.9807554111 -8.28E-08
    10 OT SD       0.80E-01    0.8     0.00002164     -1102.9807541245  1.29E-06
    11 OT SD       0.80E-01    0.8     0.00005190     -1102.9807447421  9.38E-06
    12 OT DIIS     0.80E-01    0.8     0.00012753     -1102.9806862271  5.85E-05
    13 OT SD       0.80E-01    0.8     0.00000616     -1102.9807396542 -5.34E-05
    14 OT DIIS     0.80E-01    0.8     0.00000489     -1102.9807402133 -5.59E-07
    15 OT DIIS     0.80E-01    0.8     0.00000648     -1102.9807400706  1.43E-07
    16 OT SD       0.80E-01    0.8     0.00000347     -1102.9807466207 -6.55E-06
    17 OT SD       0.80E-01    0.8     0.00000338     -1102.9807469504 -3.30E-07
    18 OT SD       0.80E-01    0.8     0.00000362     -1102.9807472608 -3.10E-07
    19 OT DIIS     0.80E-01    0.8     0.00000448     -1102.9807475433 -2.83E-07
    20 OT SD       0.80E-01    0.8     0.00000325     -1102.9807480603 -5.17E-07
    21 OT DIIS     0.80E-01    0.8     0.00000334     -1102.9807483727 -3.12E-07
    22 OT SD       0.80E-01    0.8     0.00000323     -1102.9807491434 -7.71E-07
    23 OT SD       0.80E-01    0.8     0.00000324     -1102.9807494592 -3.16E-07
    24 OT SD       0.80E-01    0.8     0.00000329     -1102.9807497755 -3.16E-07
    25 OT SD       0.80E-01    0.8     0.00000350     -1102.9807500882 -3.13E-07
    26 OT SD       0.80E-01    0.8     0.00000466     -1102.9807503690 -2.81E-07
    27 OT SD       0.80E-01    0.8     0.00000920     -1102.9807504275 -5.85E-08
    28 OT SD       0.80E-01    0.8     0.00002270     -1102.9807489548  1.47E-06
    29 OT DIIS     0.80E-01    0.8     0.00005930     -1102.9807368489  1.21E-05
    30 OT DIIS     0.80E-01    0.8     0.00000611     -1102.9807359737  8.75E-07

  Leaving inner SCF loop after reaching    30 steps.


  Electronic density on regular grids:       -511.9999999885        0.0000000115
  Core density on regular grids:              512.9999999832       -0.0000000168
  Total charge density on r-space grids:        0.9999999947
  Total charge density g-space grids:           0.9999999947

  Overlap energy of the core charge distribution:               0.00000141140116
  Self energy of the core charge distribution:              -2839.62839375007934
  Core Hamiltonian energy:                                    827.49242602318850
  Hartree energy:                                            1180.53516651704967
  Exchange-correlation energy:                               -271.13172876138475
  Dispersion energy:                                           -0.24820741382956

  Total energy:                                             -1102.98073597365419

  outer SCF iter =    2 RMS gradient =   0.61E-05 energy =      -1102.9807359737

  ----------------------------------- OT ---------------------------------------
  Minimizer      : DIIS                : direct inversion
                                         in the iterative subspace
                                         using   7 DIIS vectors
                                         safer DIIS on
  Preconditioner : FULL_SINGLE_INVERSE : inversion of 
                                         H + eS - 2*(Sc)(c^T*H*c+const)(Sc)^T
  Precond_solver : DEFAULT
  stepsize       :    0.08000000                  energy_gap     :    0.08000000
  eps_taylor     :   0.10000E-15                  max_taylor     :             4
[...]
    22 OT SD       0.80E-01    0.8     0.00001080     -1103.0165106751 -3.87E-06
    23 OT SD       0.80E-01    0.8     0.00001654     -1103.0165120606 -1.39E-06
    24 OT SD       0.80E-01    0.8     0.00003571     -1103.0165097373  2.32E-06
    25 OT DIIS     0.80E-01    0.8     0.00008713     -1103.0164846566  2.51E-05
    26 OT SD       0.80E-01    0.8     0.00000802     -1103.0164872434 -2.59E-06
    27 OT SD       0.80E-01    0.8     0.00001047     -1103.0164884717 -1.23E-06
    28 OT SD       0.80E-01    0.8     0.00001810     -1103.0164889029 -4.31E-07
    29 OT SD       0.80E-01    0.8     0.00003910     -1103.0164850130  3.89E-06
    30 OT DIIS     0.80E-01    0.8     0.00009412     -1103.0164548595  3.02E-05

  Leaving inner SCF loop after reaching    30 steps.


  Electronic density on regular grids:       -511.9999999881        0.0000000119
  Core density on regular grids:              512.9999999831       -0.0000000169
  Total charge density on r-space grids:        0.9999999951
  Total charge density g-space grids:           0.9999999951

  Overlap energy of the core charge distribution:               0.00000104911529
  Self energy of the core charge distribution:              -2839.62839375007934
  Core Hamiltonian energy:                                    825.18537035218651
  Hartree energy:                                            1182.15499859387296
  Exchange-correlation energy:                               -270.48011829128257
  Dispersion energy:                                           -0.24831281327755

  Total energy:                                             -1103.01645485946483

  outer SCF iter =    3 RMS gradient =   0.94E-04 energy =      -1103.0164548595

  ----------------------------------- OT ---------------------------------------
  Minimizer      : DIIS                : direct inversion
                                         in the iterative subspace
                                         using   7 DIIS vectors
                                         safer DIIS on
  Preconditioner : FULL_SINGLE_INVERSE : inversion of 
                                         H + eS - 2*(Sc)(c^T*H*c+const)(Sc)^T
  Precond_solver : DEFAULT
  stepsize       :    0.08000000                  energy_gap     :    0.08000000
  eps_taylor     :   0.10000E-15                  max_taylor     :             4
  ----------------------------------- OT ---------------------------------------

  Step     Update method      Time    Convergence         Total energy    Change
  ------------------------------------------------------------------------------
     1 OT DIIS     0.80E-01    1.8     0.00000786     -1103.0164791269 -2.43E-05
     2 OT DIIS     0.80E-01    0.8     0.00000932     -1103.0164802586 -1.13E-06
     3 OT DIIS     0.80E-01    0.8     0.00000650     -1103.0164809578 -6.99E-07
     4 OT DIIS     0.80E-01    0.8     0.00000633     -1103.0164817240 -7.66E-07
     5 OT DIIS     0.80E-01    0.8     0.00000621     -1103.0164824911 -7.67E-07
     6 OT DIIS     0.80E-01    0.8     0.00000621     -1103.0164845114 -2.02E-06
     7 OT SD       0.80E-01    0.8     0.00000621     -1103.0164846434 -1.32E-07
     8 OT SD       0.80E-01    0.8     0.00000622     -1103.0164858092 -1.17E-06
     9 OT SD       0.80E-01    0.8     0.00000625     -1103.0164869803 -1.17E-06
    10 OT SD       0.80E-01    0.8     0.00000629     -1103.0164881586 -1.18E-06
    11 OT SD       0.80E-01    0.8     0.00000636     -1103.0164893450 -1.19E-06
    12 OT SD       0.80E-01    0.8     0.00000657     -1103.0164905359 -1.19E-06
    13 OT SD       0.80E-01    0.8     0.00000730     -1103.0164917070 -1.17E-06
    14 OT SD       0.80E-01    0.8     0.00001010     -1103.0164927218 -1.01E-06
    15 OT SD       0.80E-01    0.8     0.00001950     -1103.0164927588 -3.70E-08
    16 OT SD       0.80E-01    0.8     0.00004612     -1103.0164865658  6.19E-06
    17 OT DIIS     0.80E-01    0.8     0.00011675     -1103.0164393284  4.72E-05
    18 OT DIIS     0.80E-01    0.8     0.00002173     -1103.0164543152 -1.50E-05
    19 OT DIIS     0.80E-01    0.8     0.00001207     -1103.0164623333 -8.02E-06
    20 OT DIIS     0.80E-01    0.8     0.00000865     -1103.0164625677 -2.34E-07
    21 OT DIIS     0.80E-01    0.8     0.00000710     -1103.0164774716 -1.49E-05
    22 OT SD       0.80E-01    0.8     0.00000655     -1103.0164864876 -9.02E-06
    23 OT SD       0.80E-01    0.8     0.00000708     -1103.0164876441 -1.16E-06
    24 OT SD       0.80E-01    0.8     0.00000868     -1103.0164887123 -1.07E-06
    25 OT SD       0.80E-01    0.8     0.00001283     -1103.0164894612 -7.49E-07
    26 OT SD       0.80E-01    0.8     0.00002239     -1103.0164889774  4.84E-07
    27 OT SD       0.80E-01    0.8     0.00004342     -1103.0164834026  5.57E-06
    28 OT DIIS     0.80E-01    0.8     0.00009061     -1103.0164546499  2.88E-05
    29 OT DIIS     0.80E-01    0.8     0.00000723     -1103.0164696215 -1.50E-05
    30 OT DIIS     0.80E-01    0.8     0.00000673     -1103.0164705968 -9.75E-07

  Leaving inner SCF loop after reaching    30 steps.


  Electronic density on regular grids:       -511.9999999881        0.0000000119
  Core density on regular grids:              512.9999999831       -0.0000000169
  Total charge density on r-space grids:        0.9999999951
  Total charge density g-space grids:           0.9999999951

  Overlap energy of the core charge distribution:               0.00000104911529
  Self energy of the core charge distribution:              -2839.62839375007934
  Core Hamiltonian energy:                                    825.18915642961815
  Hartree energy:                                            1182.15180666038577
  Exchange-correlation energy:                               -270.48072817253393
  Dispersion energy:                                           -0.24831281327755

  Total energy:                                             -1103.01647059677157

  outer SCF iter =    4 RMS gradient =   0.67E-05 energy =      -1103.0164705968

  ----------------------------------- OT ---------------------------------------
  Minimizer      : DIIS                : direct inversion
                                         in the iterative subspace
                                         using   7 DIIS vectors
                                         safer DIIS on
  Preconditioner : FULL_SINGLE_INVERSE : inversion of 
                                         H + eS - 2*(Sc)(c^T*H*c+const)(Sc)^T
  Precond_solver : DEFAULT
  stepsize       :    0.08000000                  energy_gap     :    0.08000000
  eps_taylor     :   0.10000E-15                  max_taylor     :             4
  ----------------------------------- OT ---------------------------------------

  Step     Update method      Time    Convergence         Total energy    Change
  ------------------------------------------------------------------------------
     1 OT DIIS     0.80E-01    1.8     0.00000785     -1103.0164716175 -1.02E-06
     2 OT DIIS     0.80E-01    0.8     0.00000744     -1103.0164729660 -1.35E-06
     3 OT DIIS     0.80E-01    0.8     0.00000706     -1103.0164736243 -6.58E-07
     4 OT DIIS     0.80E-01    0.8     0.00000610     -1103.0164743779 -7.54E-07
     5 OT DIIS     0.80E-01    0.8     0.00000606     -1103.0164754303 -1.05E-06
     6 OT DIIS     0.80E-01    0.8     0.00000595     -1103.0164779203 -2.49E-06
     7 OT DIIS     0.80E-01    0.8     0.00000597     -1103.0164820790 -4.16E-06
     8 OT SD       0.80E-01    0.8     0.00000592     -1103.0164840401 -1.96E-06
     9 OT SD       0.80E-01    0.8     0.00000595     -1103.0164850999 -1.06E-06
    10 OT SD       0.80E-01    0.8     0.00000606     -1103.0164861640 -1.06E-06
    11 OT SD       0.80E-01    0.8     0.00000658     -1103.0164872161 -1.05E-06
    12 OT SD       0.80E-01    0.8     0.00000921     -1103.0164881332 -9.17E-07
    13 OT SD       0.80E-01    0.8     0.00001889     -1103.0164880905  4.27E-08
    14 OT SD       0.80E-01    0.8     0.00004644     -1103.0164815933  6.50E-06
    15 OT DIIS     0.80E-01    0.8     0.00011915     -1103.0164320945  4.95E-05
    16 OT DIIS     0.80E-01    0.8     0.00001097     -1103.0164593629 -2.73E-05
    17 OT DIIS     0.80E-01    0.8     0.00000967     -1103.0164605783 -1.22E-06
    18 OT DIIS     0.80E-01    0.8     0.00000833     -1103.0164626363 -2.06E-06
    19 OT DIIS     0.80E-01    0.8     0.00000720     -1103.0164667818 -4.15E-06
    20 OT SD       0.80E-01    0.8     0.00000628     -1103.0164845338 -1.78E-05
    21 OT SD       0.80E-01    0.8     0.00000765     -1103.0164855111 -9.77E-07
    22 OT SD       0.80E-01    0.8     0.00001333     -1103.0164860695 -5.58E-07
    23 OT SD       0.80E-01    0.8     0.00003081     -1103.0164838729  2.20E-06
    24 OT DIIS     0.80E-01    0.8     0.00007806     -1103.0164633332  2.05E-05
    25 OT SD       0.80E-01    0.8     0.00000591     -1103.0164753263 -1.20E-05
    26 OT SD       0.80E-01    0.8     0.00000620     -1103.0164763205 -9.94E-07
    27 OT SD       0.80E-01    0.8     0.00000801     -1103.0164772091 -8.89E-07
    28 OT SD       0.80E-01    0.8     0.00001514     -1103.0164775024 -2.93E-07
    29 OT DIIS     0.80E-01    0.8     0.00003628     -1103.0164738942  3.61E-06
    30 OT DIIS     0.80E-01    0.8     0.00000585     -1103.0164781846 -4.29E-06

  Leaving inner SCF loop after reaching    30 steps.


  Electronic density on regular grids:       -511.9999999877        0.0000000123
  Core density on regular grids:              512.9999999831       -0.0000000169
  Total charge density on r-space grids:        0.9999999954
  Total charge density g-space grids:           0.9999999954

  Overlap energy of the core charge distribution:               0.00000104911529
  Self energy of the core charge distribution:              -2839.62839375007934
  Core Hamiltonian energy:                                    825.18915088968208
  Hartree energy:                                            1182.15186151459534
  Exchange-correlation energy:                               -270.48078507466454
  Dispersion energy:                                           -0.24831281327755

  Total energy:                                             -1103.01647818462880

  outer SCF iter =    5 RMS gradient =   0.58E-05 energy =      -1103.0164781846

  ----------------------------------- OT ---------------------------------------
  Minimizer      : DIIS                : direct inversion
                                         in the iterative subspace
                                         using   7 DIIS vectors
                                         safer DIIS on
  Preconditioner : FULL_SINGLE_INVERSE : inversion of 
                                         H + eS - 2*(Sc)(c^T*H*c+const)(Sc)^T
  Precond_solver : DEFAULT
  stepsize       :    0.08000000                  energy_gap     :    0.08000000
  eps_taylor     :   0.10000E-15                  max_taylor     :             4
  ----------------------------------- OT ---------------------------------------

  Step     Update method      Time    Convergence         Total energy    Change
  ------------------------------------------------------------------------------
     1 OT DIIS     0.80E-01    1.8     0.00000575     -1103.0164818405 -3.66E-06
     2 OT DIIS     0.80E-01    0.8     0.00000583     -1103.0164828299 -9.89E-07
     3 OT SD       0.80E-01    0.8     0.00000575     -1103.0164831634 -3.34E-07
     4 OT SD       0.80E-01    0.8     0.00000578     -1103.0164841659 -1.00E-06
     5 OT SD       0.80E-01    0.8     0.00000582     -1103.0164851773 -1.01E-06
     6 OT SD       0.80E-01    0.8     0.00000590     -1103.0164861976 -1.02E-06
     7 OT SD       0.80E-01    0.8     0.00000618     -1103.0164872198 -1.02E-06
     8 OT SD       0.80E-01    0.8     0.00000749     -1103.0164881935 -9.74E-07
     9 OT SD       0.80E-01    0.8     0.00001289     -1103.0164887880 -5.94E-07
    10 OT SD       0.80E-01    0.8     0.00002959     -1103.0164868520  1.94E-06
    11 OT DIIS     0.80E-01    0.8     0.00007410     -1103.0164683021  1.85E-05
    12 OT DIIS     0.80E-01    0.8     0.00002367     -1103.0164508661  1.74E-05
    13 OT DIIS     0.80E-01    0.8     0.00002093     -1103.0164504526  4.13E-07
    14 OT DIIS     0.80E-01    0.8     0.00001038     -1103.0164549013 -4.45E-06
    15 OT DIIS     0.80E-01    0.8     0.00001049     -1103.0164636394 -8.74E-06
    16 OT DIIS     0.80E-01    0.8     0.00000625     -1103.0164909045 -2.73E-05
    17 OT SD       0.80E-01    0.8     0.00000769     -1103.0164956816 -4.78E-06
    18 OT SD       0.80E-01    0.8     0.00000826     -1103.0164969127 -1.23E-06
    19 OT SD       0.80E-01    0.8     0.00001189     -1103.0164977712 -8.58E-07
    20 OT DIIS     0.80E-01    0.8     0.00002212     -1103.0164974025  3.69E-07
    21 OT SD       0.80E-01    0.8     0.00001524     -1103.0165016007 -4.20E-06
    22 OT SD       0.80E-01    0.8     0.00001001     -1103.0165052062 -3.61E-06
    23 OT SD       0.80E-01    0.8     0.00001647     -1103.0165060315 -8.25E-07
    24 OT SD       0.80E-01    0.8     0.00003754     -1103.0165026564  3.38E-06
    25 OT DIIS     0.80E-01    0.8     0.00009331     -1103.0164729495  2.97E-05
    26 OT DIIS     0.80E-01    0.8     0.00000909     -1103.0164766045 -3.66E-06
    27 OT SD       0.80E-01    0.8     0.00000779     -1103.0164969334 -2.03E-05
    28 OT SD       0.80E-01    0.8     0.00001281     -1103.0164977118 -7.78E-07
    29 OT SD       0.80E-01    0.8     0.00002921     -1103.0164960476  1.66E-06
    30 OT SD       0.80E-01    0.8     0.00007391     -1103.0164778674  1.82E-05

  Leaving inner SCF loop after reaching    30 steps.


  Electronic density on regular grids:       -511.9999999692        0.0000000308
  Core density on regular grids:              512.9999999831       -0.0000000169
  Total charge density on r-space grids:        1.0000000139
  Total charge density g-space grids:           1.0000000139

  Overlap energy of the core charge distribution:               0.00000104911529
  Self energy of the core charge distribution:              -2839.62839375007934
  Core Hamiltonian energy:                                    825.19384774511786
  Hartree energy:                                            1182.14812530883341
  Exchange-correlation energy:                               -270.48174540714871
  Dispersion energy:                                           -0.24831281327755

  Total energy:                                             -1103.01647786743911

  outer SCF iter =    6 RMS gradient =   0.74E-04 energy =      -1103.0164778674

  ----------------------------------- OT ---------------------------------------
  Minimizer      : DIIS                : direct inversion
                                         in the iterative subspace
                                         using   7 DIIS vectors
                                         safer DIIS on
  Preconditioner : FULL_SINGLE_INVERSE : inversion of 
                                         H + eS - 2*(Sc)(c^T*H*c+const)(Sc)^T
  Precond_solver : DEFAULT
  stepsize       :    0.08000000                  energy_gap     :    0.08000000
  eps_taylor     :   0.10000E-15                  max_taylor     :             4
  ----------------------------------- OT ---------------------------------------

  Step     Update method      Time    Convergence         Total energy    Change
  ------------------------------------------------------------------------------
     1 OT DIIS     0.80E-01    1.8     0.00019268     -1103.0163478190  1.30E-04
     2 OT DIIS     0.80E-01    0.8     0.00049561     -1103.0154521810  8.96E-04
     3 OT DIIS     0.80E-01    0.8     0.00001137     -1103.0165033118 -1.05E-03
     4 OT DIIS     0.80E-01    0.8     0.00000721     -1103.0165041460 -8.34E-07
     5 OT SD       0.80E-01    0.8     0.00000704     -1103.0165044353 -2.89E-07
     6 OT SD       0.80E-01    0.8     0.00000827     -1103.0165057609 -1.33E-06
     7 OT SD       0.80E-01    0.8     0.00001358     -1103.0165067129 -9.52E-07
     8 OT SD       0.80E-01    0.8     0.00003090     -1103.0165049616  1.75E-06
     9 OT SD       0.80E-01    0.8     0.00007827     -1103.0164846853  2.03E-05
    10 OT DIIS     0.80E-01    0.8     0.00020436     -1103.0163385394  1.46E-04
    11 OT SD       0.80E-01    0.8     0.00002490     -1103.0164459135 -1.07E-04
    12 OT DIIS     0.80E-01    0.8     0.00001781     -1103.0164532675 -7.35E-06
    13 OT DIIS     0.80E-01    0.8     0.00002448     -1103.0164472703  6.00E-06
    14 OT DIIS     0.80E-01    0.8     0.00001658     -1103.0164699727 -2.27E-05
    15 OT SD       0.80E-01    0.8     0.00000745     -1103.0164865962 -1.66E-05
    16 OT DIIS     0.80E-01    0.8     0.00001120     -1103.0164872299 -6.34E-07
    17 OT DIIS     0.80E-01    0.8     0.00000900     -1103.0164914077 -4.18E-06
    18 OT DIIS     0.80E-01    0.8     0.00000894     -1103.0164954156 -4.01E-06
    19 OT DIIS     0.80E-01    0.8     0.00001060     -1103.0165057870 -1.04E-05
    20 OT SD       0.80E-01    0.8     0.00001182     -1103.0165157028 -9.92E-06
    21 OT SD       0.80E-01    0.8     0.00001086     -1103.0165182436 -2.54E-06
    22 OT SD       0.80E-01    0.8     0.00001942     -1103.0165190132 -7.70E-07
    23 OT SD       0.80E-01    0.8     0.00004573     -1103.0165136479  5.37E-06
    24 OT DIIS     0.80E-01    0.8     0.00011668     -1103.0164672258  4.64E-05
    25 OT DIIS     0.80E-01    0.8     0.00000906     -1103.0165027235 -3.55E-05
    26 OT SD       0.80E-01    0.8     0.00000823     -1103.0165048120 -2.09E-06
    27 OT SD       0.80E-01    0.8     0.00001100     -1103.0165059664 -1.15E-06
    28 OT SD       0.80E-01    0.8     0.00001811     -1103.0165063934 -4.27E-07
    29 OT SD       0.80E-01    0.8     0.00003518     -1103.0165035318  2.86E-06
    30 OT DIIS     0.80E-01    0.8     0.00007599     -1103.0164842119  1.93E-05

  Leaving inner SCF loop after reaching    30 steps.


  Electronic density on regular grids:       -511.9999999881        0.0000000119
  Core density on regular grids:              512.9999999831       -0.0000000169
  Total charge density on r-space grids:        0.9999999951
  Total charge density g-space grids:           0.9999999951

  Overlap energy of the core charge distribution:               0.00000104911529
  Self energy of the core charge distribution:              -2839.62839375007934
  Core Hamiltonian energy:                                    825.19406575310143
  Hartree energy:                                            1182.14792628131590
  Exchange-correlation energy:                               -270.48177073202748
  Dispersion energy:                                           -0.24831281327755

  Total energy:                                             -1103.01648421185200

  outer SCF iter =    7 RMS gradient =   0.76E-04 energy =      -1103.0164842119

  ----------------------------------- OT ---------------------------------------
  Minimizer      : DIIS                : direct inversion
                                         in the iterative subspace
                                         using   7 DIIS vectors
                                         safer DIIS on
  Preconditioner : FULL_SINGLE_INVERSE : inversion of 
                                         H + eS - 2*(Sc)(c^T*H*c+const)(Sc)^T
  Precond_solver : DEFAULT
  stepsize       :    0.08000000                  energy_gap     :    0.08000000
  eps_taylor     :   0.10000E-15                  max_taylor     :             4
  ----------------------------------- OT ---------------------------------------

  Step     Update method      Time    Convergence         Total energy    Change
  ------------------------------------------------------------------------------
     1 OT DIIS     0.80E-01    1.8     0.00000724     -1103.0164872781 -3.07E-06
