#     Step Nr.          Time[fs]        Kin.[a.u.]          Temp[K]            Pot.[a.u.]        Cons Qty[a.u.]        UsedTime[s]
         0            0.000000         0.275037913       300.000000000     -1102.922040470     -1102.647002558         0.000000000
         1            0.500000         0.278040333       303.274916167     -1102.924530235     -1102.647078900       135.135020480
         2            1.000000         0.281145898       306.662338296     -1102.938745439     -1102.647396456        31.045685049
         3            1.500000         0.301224027       328.562732177     -1102.961903986     -1102.647866276        23.621073507
         4            2.000000         0.309938911       338.068568492     -1102.980755579     -1102.648165990       269.341090616
         5            2.500000         0.333046183       363.273026625     -1102.996795960     -1102.648404916        39.122374594
         6            3.000000         0.351162806       383.033890905     -1103.004063756     -1102.648329797        32.146290749
         7            3.500000         0.339672025       370.500221569     -1103.004252208     -1102.648104297        38.510419905
         8            4.000000         0.329159699       359.033809921     -1103.003954118     -1102.647881938        22.845023260
         9            4.500000         0.335168952       365.588455642     -1103.006072208     -1102.647741813        17.971288655
        10            5.000000         0.320504527       349.593106029     -1103.009835676     -1102.647653837        20.790768456
        11            5.500000         0.337323288       367.938316047     -1103.016484784     -1102.647704107       269.001651235
        12            6.000000         0.343469646       374.642509456     -1103.025506160     -1102.648044123        50.381056428
        13            6.500000         0.342815811       373.929333237     -1103.036790450     -1102.648076656        34.602462944
        14            7.000000         0.334491140       364.849125884     -1103.051387239     -1102.648186786        33.755370580
        15            7.500000         0.362466359       395.363340057     -1103.065699300     -1102.648295762        22.015394706
        16            8.000000         0.379922713       414.404009814     -1103.084115444     -1102.648488609        15.559087403
        17            8.500000         0.377220811       411.456886842     -1103.097845768     -1102.648617882        11.475183781
        18            9.000000         0.366588866       399.860000228     -1103.108018214     -1102.648937921         9.066993929
        19            9.500000         0.378154658       412.475488796     -1103.109880040     -1102.649497625         8.257243205
        20           10.000000         0.353511589       385.595846328     -1103.094894211     -1102.650345568        10.717233527
        21           10.500000         0.311749023       340.042963729     -1103.058263906     -1102.649638129         8.251679868
        22           11.000000         0.281650283       307.212500819     -1103.022065667     -1102.646504786         8.251224380
        23           11.500000         0.280334804       305.777630702     -1103.030186429     -1102.647177584         8.250565697
        24           12.000000         0.296382990       323.282329616     -1103.067611718     -1102.650082272         8.248295899
        25           12.500000         0.314201458       342.717978092     -1103.101023355     -1102.651130680         8.271783505
        26           13.000000         0.314709565       343.272200751     -1103.115218213     -1102.650896010         8.245588891
        27           13.500000         0.335939463       366.428896333     -1103.114426957     -1102.650420196         8.241858099
        28           14.000000         0.314596367       343.148729340     -1103.108910167     -1102.650079713         8.282230828
        29           14.500000         0.298778688       325.895458055     -1103.104326044     -1102.649915651         8.259136204
        30           15.000000         0.295715200       322.553931274     -1103.101400116     -1102.649852134        10.858681872
        31           15.500000         0.306300313       334.099735762     -1103.102782945     -1102.649843567         8.251508281
        32           16.000000         0.306033435       333.808636220     -1103.105353588     -1102.649808767         8.263549052
        33           16.500000         0.301910113       329.311087068     -1103.110703919     -1102.649743434         8.262611609
        34           17.000000         0.311114686       339.351054509     -1103.120372582     -1102.649762872         8.257366724
        35           17.500000         0.319448501       348.441236287     -1103.134256697     -1102.649931903         8.248707838
        36           18.000000         0.325605837       355.157404203     -1103.149593804     -1102.650223394         8.266378783
        37           18.500000         0.344329625       375.580539544     -1103.160118148     -1102.650461868         8.270830587
        38           19.000000         0.330812740       360.836879483     -1103.161827174     -1102.650520866         8.244892810
        39           19.500000         0.329746596       359.673973375     -1103.161500298     -1102.650477248         8.246336129
        40           20.000000         0.316062875       344.748335467     -1103.157547544     -1102.650280773        10.380553637
        41           20.500000         0.321272775       350.431079483     -1103.155876963     -1102.650119799         8.274233632
        42           21.000000         0.318876975       347.817839589     -1103.157302285     -1102.650115070         8.274125297
        43           21.500000         0.308830651       336.859724197     -1103.160409095     -1102.650097878         8.296590429
        44           22.000000         0.317699070       346.533029118     -1103.166264994     -1102.650133484         8.290919591
        45           22.500000         0.309910081       338.037122104     -1103.175336698     -1102.650373632         8.260252330
        46           23.000000         0.299302913       326.467261166     -1103.183771800     -1102.650655474         8.280174248
        47           23.500000         0.294300353       321.010674927     -1103.192326234     -1102.650863229         7.494940139
        48           24.000000         0.303565558       331.116777893     -1103.198901100     -1102.650954170         8.274734836
        49           24.500000         0.305149407       332.844375245     -1103.201359030     -1102.650932599         8.263837643
        50           25.000000         0.299257250       326.417453554     -1103.199843342     -1102.650908343        10.334465221
        51           25.500000         0.279235064       304.578079234     -1103.194756441     -1102.650836138         8.253835231
        52           26.000000         0.278286230       303.543130487     -1103.189928424     -1102.650740571         8.279783636
        53           26.500000         0.280748865       306.229271654     -1103.182160965     -1102.650561071         8.281702891
        54           27.000000         0.279558724       304.931114569     -1103.177653424     -1102.650417745         8.274770465
        55           27.500000         0.268134048       292.469549074     -1103.176557068     -1102.650364456         8.263990432
        56           28.000000         0.270315480       294.848965456     -1103.183023853     -1102.650539300         8.297061503
        57           28.500000         0.283886302       309.651457587     -1103.193251465     -1102.650845599         8.263193991
        58           29.000000         0.291758007       318.237588588     -1103.199284909     -1102.650998501         8.276343755
        59           29.500000         0.301896910       329.296685805     -1103.202756305     -1102.651042368         8.268987820
        60           30.000000         0.302305115       329.741939132     -1103.202541053     -1102.650989770        10.411627345
        61           30.500000         0.290581899       316.954738850     -1103.200654358     -1102.650906758         8.315094009
        62           31.000000         0.288229229       314.388542971     -1103.196451290     -1102.650759193         8.298330955
        63           31.500000         0.287130266       313.189839688     -1103.194345194     -1102.650678666         8.279114135
        64           32.000000         0.303176629       330.692549798     -1103.195947051     -1102.650694040         8.264876220
        65           32.500000         0.298984040       326.119447287     -1103.198773395     -1102.650751293         8.269300282
        66           33.000000         0.303150265       330.663793132     -1103.199642188     -1102.650740619         8.276030146
        67           33.500000         0.308175750       336.145384784     -1103.201753988     -1102.650756905         8.272727650
        68           34.000000         0.319429620       348.420641662     -1103.205564680     -1102.650843995         8.269947007
        69           34.500000         0.346577976       378.032947570     -1103.209252492     -1102.650911855         8.256224811
        70           35.000000         0.346410215       377.849961254     -1103.210176726     -1102.650902004        11.366665345
        71           35.500000         0.331565409       361.657859113     -1103.208056736     -1102.650799597         8.259869523
        72           36.000000         0.318643899       347.563609578     -1103.206200282     -1102.650708728         8.255388081
        73           36.500000         0.314727345       343.291594117     -1103.203461602     -1102.650647874         8.289999481
        74           37.000000         0.290164019       316.498932749     -1103.201227999     -1102.650606691         8.256707482
        75           37.500000         0.301224929       328.563716489     -1103.202811952     -1102.650680119         8.280027036
        76           38.000000         0.283889258       309.654682335     -1103.204658593     -1102.650759946         8.267091274
        77           38.500000         0.283662464       309.407304334     -1103.209517701     -1102.650883413         8.272902861
        78           39.000000         0.295066278       321.846114644     -1103.213229884     -1102.650976304         7.449581001
        79           39.500000         0.300692031       327.982453710     -1103.213110388     -1102.650955384         8.270181928
        80           40.000000         0.280113454       305.536190826     -1103.209302000     -1102.650823205         9.621653803
        81           40.500000         0.294789681       321.544413101     -1103.205634016     -1102.650687113         7.451638594
        82           41.000000         0.272325769       297.041706074     -1103.203529656     -1102.650581681         7.447476383
        83           41.500000         0.278988932       304.309609282     -1103.204905845     -1102.650585575         8.268244106
        84           42.000000         0.299788540       326.996962123     -1103.207727644     -1102.650687527         7.490949400
        85           42.500000         0.306175566       333.963666621     -1103.209903708     -1102.650778563         7.470616862
        86           43.000000         0.303295903       330.822649499     -1103.212132002     -1102.650864261         8.275877994
        87           43.500000         0.300206284       327.452620065     -1103.213864643     -1102.650926987         7.466670804
        88           44.000000         0.309632624       337.734482957     -1103.214285671     -1102.650911884         7.462196302
        89           44.500000         0.301798036       329.188838192     -1103.213300800     -1102.650861324         7.470723432
        90           45.000000         0.284838255       310.689809272     -1103.210246900     -1102.650789559         9.972599305
        91           45.500000         0.284533792       310.357713396     -1103.208257204     -1102.650735807         7.446258992
        92           46.000000         0.274628598       299.553536958     -1103.207226372     -1102.650689483         7.451736063
        93           46.500000         0.279264002       304.609644015     -1103.205864791     -1102.650645300         7.445596892
        94           47.000000         0.266672884       290.875771653     -1103.203972606     -1102.650579276         7.457470741
        95           47.500000         0.272117843       296.814908879     -1103.205318409     -1102.650600905         7.449943192
        96           48.000000         0.274529166       299.445080700     -1103.203796660     -1102.650563856         7.467093229
        97           48.500000         0.285444485       311.351059834     -1103.202897300     -1102.650517302         8.281368788
        98           49.000000         0.271539557       296.184138413     -1103.201559552     -1102.650468578         8.270359438
        99           49.500000         0.279292691       304.640936228     -1103.202791248     -1102.650549743         8.257699933
       100           50.000000         0.262679648       286.520115354     -1103.205681632     -1102.650681058         9.581211612
       101           50.500000         0.271232853       295.849598460     -1103.208004055     -1102.650727313         7.451861218
       102           51.000000         0.280906051       306.400723553     -1103.208171853     -1102.650688146         7.470264893
       103           51.500000         0.278739440       304.037473564     -1103.204320271     -1102.650572117         7.446845755
       104           52.000000         0.268789880       293.184903531     -1103.199265818     -1102.650453061         7.475742549
       105           52.500000         0.273238069       298.036804894     -1103.195597594     -1102.650381925         7.472621579
       106           53.000000         0.278792151       304.094968125     -1103.197201112     -1102.650488686         7.461546604
       107           53.500000         0.284832333       310.683349763     -1103.199648049     -1102.650618727         7.486945938
       108           54.000000         0.287325872       313.403198656     -1103.202814354     -1102.650751315         7.452553708
       109           54.500000         0.292257241       318.782132340     -1103.206215771     -1102.650805762         7.446491186
       110           55.000000         0.276385725       301.470137708     -1103.204134754     -1102.650722375         9.587470796
       111           55.500000         0.274998474       299.956981651     -1103.200357145     -1102.650626034         7.457587101
       112           56.000000         0.293405148       320.034222107     -1103.198204857     -1102.650581328         7.463131957
       113           56.500000         0.272023050       296.711512846     -1103.196933714     -1102.650581133         8.273732685
       114           57.000000         0.279118353       304.450776037     -1103.193855311     -1102.650527223         8.256233685
       115           57.500000         0.279448316       304.810685812     -1103.193340175     -1102.650497672         7.474944364
       116           58.000000         0.285763025       311.698509371     -1103.193839081     -1102.650481534         8.251747835
       117           58.500000         0.269668150       294.142884834     -1103.197022770     -1102.650523172         7.471868038
       118           59.000000         0.281681316       307.246350016     -1103.199269187     -1102.650586454         7.469747417
       119           59.500000         0.296665712       323.590710971     -1103.199962138     -1102.650661245         7.465376023
       120           60.000000         0.291649236       318.118946269     -1103.198653364     -1102.650656142        10.589204989
       121           60.500000         0.290051875       316.376610496     -1103.196654814     -1102.650616201         7.450161610
       122           61.000000         0.293236191       319.849930296     -1103.195092432     -1102.650575350         7.457128916
       123           61.500000         0.284442968       310.258646697     -1103.194988990     -1102.650576303         8.269608289
       124           62.000000         0.281272373       306.800291702     -1103.195597512     -1102.650602301         8.269722767
       125           62.500000         0.292022649       318.526249326     -1103.199456266     -1102.650694198         7.459982663
       126           63.000000         0.290300854       316.648185905     -1103.201535729     -1102.650709420         7.452096697
       127           63.500000         0.296319441       323.213012178     -1103.202962187     -1102.650704793         7.465085916
       128           64.000000         0.295596977       322.424978223     -1103.200550637     -1102.650610663         7.484563321
       129           64.500000         0.292520296       319.069061826     -1103.198630632     -1102.650563768         7.450156800
       130           65.000000         0.299073876       326.217436439     -1103.199865796     -1102.650599261         9.991444554
       131           65.500000         0.291656730       318.127119655     -1103.200446525     -1102.650604281         7.455488075
       132           66.000000         0.294111213       320.804368408     -1103.201429439     -1102.650635682         7.455557749
       133           66.500000         0.303291134       330.817447311     -1103.200146276     -1102.650656272         7.451160587
       134           67.000000         0.302626014       330.091961985     -1103.199410453     -1102.650650656         7.452710275
       135           67.500000         0.313373246       341.814599133     -1103.197525818     -1102.650571118         7.456954233
       136           68.000000         0.316053232       344.737817125     -1103.193817260     -1102.650370835         7.463495795
       137           68.500000         0.308430841       336.423627609     -1103.191871600     -1102.650221747         7.442968395
       138           69.000000         0.291061193       317.477533254     -1103.194690343     -1102.650294080         7.478288043
       139           69.500000         0.284477342       310.296140437     -1103.200896745     -1102.650479925         7.458147369
       140           70.000000         0.308761174       336.783941506     -1103.209744979     -1102.650700128        10.145051580
       141           70.500000         0.296287493       323.178164871     -1103.214432664     -1102.650781404         7.452876579
       142           71.000000         0.312877916       341.274313977     -1103.213126495     -1102.650708185         7.457300790
       143           71.500000         0.287083979       313.139352246     -1103.210188586     -1102.650601016         7.462477796
       144           72.000000         0.297472916       324.471176036     -1103.206877708     -1102.650473459         7.450509630
       145           72.500000         0.296191057       323.072976719     -1103.205738945     -1102.650426999         7.455749728
       146           73.000000         0.286653480       312.669781418     -1103.208393662     -1102.650537997         7.470437713
       147           73.500000         0.295871638       322.724567655     -1103.211312751     -1102.650725034         7.467969902
       148           74.000000         0.297038586       323.997426687     -1103.210653857     -1102.650778477         7.477920927
       149           74.500000         0.303942491       331.527920290     -1103.204698994     -1102.650641073         7.450613931
       150           75.000000         0.299371393       326.541955468     -1103.200542535     -1102.650522096         9.718846738
       151           75.500000         0.289385661       315.649931884     -1103.194535399     -1102.650373461         7.473609824
       152           76.000000         0.279105424       304.436673050     -1103.190431798     -1102.650311307         7.449812725
       153           76.500000         0.280669113       306.142281402     -1103.186853036     -1102.650273432         7.449195016
       154           77.000000         0.263848730       287.795301678     -1103.184129656     -1102.650259308         7.462460522
       155           77.500000         0.253494190       276.500997114     -1103.185810004     -1102.650290885         7.466231793
       156           78.000000         0.256314368       279.577130142     -1103.189006479     -1102.650364904         7.472267050
       157           78.500000         0.258484852       281.944604450     -1103.195805417     -1102.650493121         7.462485399
       158           79.000000         0.283605231       309.344876729     -1103.202601166     -1102.650651803         7.451341778
       159           79.500000         0.296668406       323.593649011     -1103.204284527     -1102.650698884         7.487052824
       160           80.000000         0.285307159       311.201270047     -1103.202310560     -1102.650672581        10.404039819
       161           80.500000         0.278291538       303.548920173     -1103.197824035     -1102.650563718         7.473341897
       162           81.000000         0.268660581       293.043869629     -1103.192975782     -1102.650412157         8.270743713
       163           81.500000         0.286959231       313.003282126     -1103.189606172     -1102.650284988         7.450866755
       164           82.000000         0.284433982       310.248844264     -1103.189599069     -1102.650212569         7.448102467
       165           82.500000         0.286416757       312.411573405     -1103.190521334     -1102.650175188         7.454722580
       166           83.000000         0.289208593       315.456792828     -1103.196199980     -1102.650310555         7.468310416
       167           83.500000         0.293632241       320.281925885     -1103.204265844     -1102.650514209         7.459347438
       168           84.000000         0.303123104       330.634167754     -1103.209881928     -1102.650649355         7.446006417
       169           84.500000         0.298339899       325.416844389     -1103.208668493     -1102.650638220         7.484003495
       170           85.000000         0.306644243       334.474880433     -1103.205283501     -1102.650560515        10.207904022
       171           85.500000         0.269632720       294.104238883     -1103.198422412     -1102.650389516         7.468647562
       172           86.000000         0.269243410       293.679596376     -1103.194538219     -1102.650306210         8.288673166
       173           86.500000         0.276110211       301.169618356     -1103.193967284     -1102.650323946         8.263203122
       174           87.000000         0.269636552       294.108418453     -1103.193237863     -1102.650357392         7.462653480
       175           87.500000         0.260768251       284.435242508     -1103.194713861     -1102.650429704         7.447477024
       176           88.000000         0.263740504       287.677253274     -1103.195302044     -1102.650439573         7.444095191
       177           88.500000         0.271287355       295.909047132     -1103.197853713     -1102.650463291         7.473994918
       178           89.000000         0.278534852       303.814317300     -1103.198766369     -1102.650427243         7.465211947
       179           89.500000         0.281531896       307.083368498     -1103.200198355     -1102.650385183         7.467885975
       180           90.000000         0.292599616       319.155581099     -1103.204903767     -1102.650437138         9.859639511
       181           90.500000         0.301004717       328.323518016     -1103.209115263     -1102.650542772         7.452584717
       182           91.000000         0.295365161       322.172122868     -1103.214580509     -1102.650659068         7.475645818
       183           91.500000         0.297992400       325.037807483     -1103.215387691     -1102.650644447         7.462611757
       184           92.000000         0.288247633       314.408617432     -1103.214928168     -1102.650584328         7.463018108
       185           92.500000         0.282828422       308.497566123     -1103.215816713     -1102.650638768         7.468538485
       186           93.000000         0.294572278       321.307279151     -1103.216389234     -1102.650708819         7.462991297
       187           93.500000         0.287825134       313.947773546     -1103.215805471     -1102.650755620         7.469229273
       188           94.000000         0.292903432       319.486970975     -1103.212991614     -1102.650703981         7.461114280
       189           94.500000         0.285941690       311.893390661     -1103.208507058     -1102.650602165         7.528346080
       190           95.000000         0.274288181       299.182223801     -1103.202953675     -1102.650426353         9.920345787
       191           95.500000         0.268531792       292.903392188     -1103.197202959     -1102.650248290         7.488854505
       192           96.000000         0.265060008       289.116513231     -1103.197510216     -1102.650251891         7.509059548
       193           96.500000         0.275495147       300.498732189     -1103.201440788     -1102.650350325         7.494272757
       194           97.000000         0.276591830       301.694948775     -1103.209260218     -1102.650532883         7.495710131
       195           97.500000         0.299510422       326.693603176     -1103.216019142     -1102.650654722         7.494250838
       196           98.000000         0.299193548       326.347969827     -1103.218350294     -1102.650661661         7.491312530
       197           98.500000         0.289712263       316.006175084     -1103.215980575     -1102.650567512         7.489253473
       198           99.000000         0.283370034       309.088334240     -1103.212129355     -1102.650425898         7.515361004
       199           99.500000         0.275544172       300.552206991     -1103.208027437     -1102.650303920         7.504512269
       200          100.000000         0.272650353       297.395748558     -1103.201961137     -1102.650172128        10.007859278
       201          100.500000         0.266208454       290.369191432     -1103.198398181     -1102.650153094         7.516641412
       202          101.000000         0.270980132       295.573941009     -1103.200806058     -1102.650301514         7.510439262
       203          101.500000         0.277314410       302.483109807     -1103.200880132     -1102.650323916         7.520395223
       204          102.000000         0.282684886       308.341002935     -1103.202226243     -1102.650268758         7.510175835
       205          102.500000         0.297134734       324.102300430     -1103.204789639     -1102.650212666         7.505468879
       206          103.000000         0.303207361       330.726071744     -1103.208982047     -1102.650260407         7.507255010
       207          103.500000         0.291939681       318.435751003     -1103.213513970     -1102.650375206         7.494767834
       208          104.000000         0.291462010       317.914727613     -1103.215387587     -1102.650498466         7.516243938
       209          104.500000         0.291826683       318.312497537     -1103.216044629     -1102.650581053         7.509592064
       210          105.000000         0.286038001       311.998442532     -1103.213124667     -1102.650585190        10.341003805
       211          105.500000         0.288602031       314.795180175     -1103.206064829     -1102.650401043         7.518303979
       212          106.000000         0.273823545       298.675418514     -1103.199883905     -1102.650198258         7.500523761
       213          106.500000         0.265270339       289.345933858     -1103.198511732     -1102.650163679         7.546389449
       214          107.000000         0.276908185       302.040015489     -1103.200754394     -1102.650310991         7.519261688
       215          107.500000         0.273343401       298.151696706     -1103.205461315     -1102.650531312         7.515151940
       216          108.000000         0.281091910       306.603450821     -1103.209126818     -1102.650688448         7.538996276
       217          108.500000         0.291926164       318.421007823     -1103.210990287     -1102.650712305         7.532269679
       218          109.000000         0.269414227       293.865916139     -1103.209025440     -1102.650640524         7.534710769
       219          109.500000         0.261629743       285.374921677     -1103.204617104     -1102.650541963         7.520584531
       220          110.000000         0.279657129       305.038451090     -1103.201433434     -1102.650468578        11.289213158
       221          110.500000         0.272338951       297.056084498     -1103.198901079     -1102.650391040         7.553793799
       222          111.000000         0.260787407       284.456136325     -1103.197621831     -1102.650317124         7.571617763
       223          111.500000         0.264487310       288.491838630     -1103.197639511     -1102.650297777         7.589448240
       224          112.000000         0.263968556       287.926002529     -1103.199304073     -1102.650345378         7.602899641
       225          112.500000         0.270036648       294.544827312     -1103.204094054     -1102.650473856         7.596823294
       226          113.000000         0.277054164       302.199243314     -1103.206742701     -1102.650531118         7.631983440
       227          113.500000         0.287956752       314.091336851     -1103.210837633     -1102.650573457         7.660312433