#     Step Nr.          Time[fs]        Kin.[a.u.]          Temp[K]            Pot.[a.u.]        Cons Qty[a.u.]        UsedTime[s]
         0            0.000000         0.275037913       300.000000000     -1102.922040470     -1102.647002558         0.000000000
         1            0.500000         0.278040333       303.274916167     -1102.924530235     -1102.647078900       135.135020480
         2            1.000000         0.281145898       306.662338296     -1102.938745439     -1102.647396456        31.045685049
         3            1.500000         0.301224027       328.562732177     -1102.961903986     -1102.647866276        23.621073507
         4            2.000000         0.309938911       338.068568492     -1102.980755579     -1102.648165990       269.341090616
         5            2.500000         0.333046183       363.273026625     -1102.996795960     -1102.648404916        39.122374594
         6            3.000000         0.351162806       383.033890905     -1103.004063756     -1102.648329797        32.146290749
         7            3.500000         0.339672025       370.500221569     -1103.004252208     -1102.648104297        38.510419905
         8            4.000000         0.329159699       359.033809921     -1103.003954118     -1102.647881938        22.845023260
         9            4.500000         0.335168952       365.588455642     -1103.006072208     -1102.647741813        17.971288655
        10            5.000000         0.320504527       349.593106029     -1103.009835676     -1102.647653837        20.790768456
