     193
 i =        0, time =        0.000, E =     -1102.9220404701
  O         3.8585873763       -4.7533175213        5.5091974759
  H         4.2109950951       -5.5568705259        5.9994585948
  H         3.0947084560       -4.3172663108        5.9135950646
  O        -3.5460761891        1.7456237131        4.2880212708
  H        -3.3572582677        0.8369944362        4.1529456220
  H        -3.6089143450        1.9436976972        5.2698392012
  O         4.5691359319        2.9343274990       -7.0999718127
  H         3.6785962350        3.2291072409       -6.8049831901
  H         4.4953665356        2.7845914189       -8.0458027314
  O        -2.5731801314       -0.1063102257       -3.4147140374
  H        -2.0386687011        0.4155234251       -2.8289645480
  H        -1.8891606976       -0.6148201666       -3.9280631618
  O        -3.7625034284       -7.7105940327        5.6279977389
  H        -4.6343536576       -7.4199803039        5.9874790347
  H        -3.8520633915       -7.6348492192        4.6607806353
  O        -6.7131259426       -0.0759204976        2.3176844292
  H        -6.0415850051       -0.4560400697        3.0079983076
  H        -6.2582643134        0.7343068494        1.9582947358
  O         4.0109535867       -5.5817692668       -0.4126912859
  H         3.3321311866       -5.6166906662        0.3076935926
  H         3.9051538355       -4.7533442556       -0.8369521875
  O        -2.6692626967       -3.0810510613       -1.2259349448
  H        -3.2486322997       -2.4491708867       -1.7386930105
  H        -2.1918958173       -2.5988518360       -0.5763067756
  O         5.4576244064       -3.1688044689        3.1002596795
  H         4.6854987571       -3.2457995297        3.6224179934
  H         5.2579372917       -3.0507495002        2.1311396222
  O         2.0078792352        3.8025888294       -6.6441198936
  H         1.3809036112        3.0702729257       -6.8038689306
  H         1.8366067800        4.0666291804       -5.7099975874
  O         4.0608830110       -3.8929207302       -3.0596772434
  H         3.2332712864       -3.7206669725       -3.6953758544
  H         4.3366899606       -2.9825098616       -2.9848217710
  O         1.9773593054       -1.8442291306        1.0225667179
  H         1.5650644885       -2.4713604568        1.6495937537
  H         1.6194813185       -1.9133123969        0.0656946095
  O         0.7338447631       -5.7432877136       -5.0100685957
  H         1.4795768454       -6.3299226862       -4.8189325814
  H         0.4491149358       -5.7095685669       -5.9473559749
  O        -7.5166459589       -8.6781062088       -3.2371569882
  H        -7.8737663294       -9.6027219294       -3.0814153209
  H        -7.1323941392       -8.5788960418       -2.3467663280
  O         3.0089956358       -1.6206934676        5.1704516391
  H         3.8547864750       -1.8022862145        5.6866350548
  H         3.1700832113       -0.8185381416        4.6102432456
  O        -0.0943492744        1.8634710749       -6.6861347029
  H         0.2389831969        1.0552334471       -6.3170377387
  H        -0.0534604238        1.7370469556       -7.6527831571
  O         1.3803001006       -3.0815472275        3.6598466091
  H         2.0052752091       -2.6793618758        4.3169228939
  H         1.0973942250       -3.9666380514        3.9813401483
  O        -2.3279129364        2.8060791527        2.2347417439
  H        -1.6230445751        2.1315230876        2.1866163236
  H        -2.7609234795        2.5819568350        3.0889511952
  O         0.8745131234       -0.6611187482       -5.6004046460
  H         1.7204015713       -0.8189656405       -6.1098612966
  H         1.1964117837       -0.2405057963       -4.7549061774
  O        -1.1866462102       -0.7164030048        0.2437849238
  H        -1.1340006348        0.2325710411       -0.0726156939
  H        -0.9335438317       -0.7854778370        1.2011335414
  O        -3.8861935106       -9.0129285534       -3.1318571683
  H        -4.4983492231       -8.2801255892       -3.2160220896
  H        -2.9183857578       -8.7301395642       -3.1224505015
  O         4.9784414381        4.5574106629        2.1605978288
  H         4.5742506248        4.0690251974        1.4375040342
  H         4.2106782789        4.9079438424        2.6736093641
  O         4.2074812608        1.0294752439       -3.2134938111
  H         4.6250866171        0.8524308220       -4.0648666086
  H         4.4221519308        0.1920392568       -2.7364360799
  O        -5.2106345443       -6.3463699492       -2.6806456410
  H        -5.3801630197       -6.0861826108       -1.7737611737
  H        -5.9985546753       -6.0894306119       -3.1521879087
  O         4.8272006144       -2.1493089974        0.6957555837
  H         5.1698114049       -1.3843105780        1.1680731517
  H         3.8731403616       -2.0152767607        0.7901517878
  O         2.1084974235        0.9406557281        1.6964699575
  H         2.7635704789        1.5106519967        1.2582480434
  H         2.3138417141        0.0791504768        1.2943222699
  O        -5.7579045611       -5.0935991816       -0.3613728277
  H        -6.6922016300       -5.4438912590       -0.2434456391
  H        -5.9339541154       -4.1852263482       -0.6893230982
  O        -4.8501183696        4.6347512586        2.6323657871
  H        -5.8186923573        4.7291496971        2.3648078237
  H        -4.7686962808        3.6685062675        2.2489112658
  O         5.5123889390        0.8523825517       -5.5927914459
  H         6.4009274201        1.1961666201       -5.3454982775
  H         5.0326268549        1.4571097750       -6.2820870000
  O         0.7365184732       -1.9176950430       -1.2724577473
  H         0.4366627686       -2.6685959517       -1.8452499204
  H        -0.0280723827       -1.6346960324       -0.7323636982
  O         3.9005939808        2.6221972296        0.0824981180
  H         4.6603628952        2.4136405159       -0.4885023274
  H         3.3619307241        3.2465911837       -0.4599512808
  O        -1.0991624885       -1.3693412589        2.9498880034
  H        -0.3354058556       -2.0369012425        3.1075024163
  H        -1.8473458549       -1.9916364646        3.2032143743
  O         2.0718451094       -5.6501678174        1.3629079156
  H         1.2043618452       -6.1369822674        1.2560686630
  H         2.4507495844       -5.8859092245        2.2558212721
  O        -0.6280310316       -3.8273493362       -2.8460859716
  H        -1.5583639221       -3.7769636412       -2.5811140145
  H        -0.5112292363       -4.5879523025       -3.3982225959
  O        -5.2918433010        2.0621670074        1.4353011132
  H        -4.4549447831        1.8776050679        1.9014549175
  H        -5.1335936869        1.9198214761        0.4197228743
  O         1.9599719653       -3.4245632717       -5.2673604360
  H         1.3225562775       -4.2123092010       -5.0388832852
  H         1.2999292168       -2.7711468268       -5.4986783863
  O        -1.1933205846        3.9368513830       -3.3737465077
  H        -1.2003012694        3.9803649971       -4.3582935942
  H        -0.7402505311        4.6500956055       -2.9405594580
  O        -5.4243979802       -5.0029807582        4.2784625506
  H        -6.1164034705       -4.5127003053        3.7817315683
  H        -4.7403199519       -5.3498607764        3.6920944114
  O         2.9732984993        5.7937546317        3.6041830736
  H         3.4176710045        6.4726708296        4.1695014822
  H         2.4485201643        5.2041088060        4.2250869218
  O        -4.0511295134        1.5445925671       -5.0626498585
  H        -3.5387103609        0.7974835831       -4.6210546124
  H        -4.0333821170        2.3518494025       -4.4301366268
  O         3.4847726839        0.5997692637        4.0091486817
  H         2.7896502362        0.5375110591        3.2686671028
  H         4.3189983631        0.4153324309        3.4395276451
  O        -4.6207476869       -1.0117618538        4.0048952776
  H        -5.3477593066       -1.2443059233        4.6253237945
  H        -4.2163881176       -1.8844792105        3.8428058821
  O        -0.2165387154        1.2751467697        3.1167167744
  H         0.6371782887        1.4136801810        2.7286969429
  H        -0.3894124526        0.3225841245        3.0508790291
  O        -1.9915351632        5.0697083632        0.6000194332
  H        -2.3376502958        4.2340876605        1.0013898546
  H        -2.6520248188        5.7471163392        0.8506616742
  O        -1.3075474036       -1.8956122645       -4.9542920356
  H        -0.8701251561       -2.4028189929       -4.2563741889
  H        -0.5949693850       -1.3532124979       -5.4532434800
  O        -5.1373452268        1.8062068789       -1.2867681226
  H        -4.6981592560        2.4597481938       -1.8505668997
  H        -5.4245526684        1.1256927260       -1.8633945543
  O        -7.3836561358       -1.2119873462       -1.9506599575
  H        -6.4212881329       -1.0371432188       -2.1463799566
  H        -7.4808782211       -1.5310477918       -1.0339482458
  H        -0.4639445925        1.4048471789       -1.7228637494
  O        -1.4639445925        1.4048471789       -1.7228637494
  H        -0.7867348868        2.1866499220       -2.1962304023
  H         0.2743927320        0.9864157199       -2.2215845685
  O        -0.0298107043       -6.5210921839       -1.0933643185
  H         0.0021424143       -5.5311453888       -1.1226646288
  H        -0.8031132631       -6.7435142146       -0.4648562320
  O         5.7090935537       -1.6927086580        6.0185486672
  H         6.0227718591       -2.5102376528        6.4195407580
  H         5.6793497711       -0.9012395738        6.6521961143
  O        -2.5962982991       -5.7683972037       -4.2195771395
  H        -2.6049028140       -6.7077669400       -4.4728336739
  H        -3.4354537463       -5.5645841736       -3.8483514813
  O        -4.9449687319       -1.4086720170       -3.2473392351
  H        -4.8913021653       -2.2217322989       -3.7674224672
  H        -3.9689548003       -1.0964857745       -3.2341980948
  O         2.2983754229       -8.0809494482       -1.2132412662
  H         1.3003681505       -8.0636283692       -1.1143923954
  H         2.5161940132       -7.1053673603       -1.1768519202
  O         6.7754357543       -3.8965331032       -5.3359261145
  H         7.5499418595       -4.1003001805       -5.8213622687
  H         6.0430158524       -4.4328146397       -5.6479610986
  O        -0.3424844631        4.9658112476        2.9508285728
  H        -0.6418240309        4.1672557959        3.4716379980
  H        -0.6759740908        4.8699377537        2.0551376194
  O        -2.8056288807       -4.0048234272        6.2239057927
  H        -2.3850599469       -4.6322887909        6.8455564859
  H        -2.3797353004       -3.1498233269        6.4330163166
  O        -2.7925113864       -3.4732237158        3.4612331596
  H        -3.1129543056       -3.8620641144        4.2746132111
  H        -3.2856093678       -4.0271447136        2.8274407488
  O         2.4867711476        4.6803618907       -3.9511208166
  H         3.3971373036        4.5081635205       -3.6298163906
  H         1.9790712168        4.6240682409       -3.1152437525
  O         1.6590765104        0.0523137912       -3.1069189687
  H         1.5113564742       -0.5996769003       -2.3563690233
  H         2.5068721250        0.5264194699       -3.0661523880
  O        -1.2023048654       -8.1603479212       -6.3670700282
  H        -0.9055157967       -9.0690551157       -6.5705273597
  H        -2.1798096138       -8.0740016376       -6.5464905196
  O        -0.4761071273        8.3851620636        0.5987466087
  H         0.3632441731        8.3096547993        1.1058350782
  H        -1.2852386123        8.0753854402        1.0587255936
  O         5.9065449362       -6.7989771803       -6.6004398209
  H         5.4130154976       -7.6233171741       -6.9137876216
  H         6.2177506878       -6.2344541440       -7.3198720135
  O        -0.3594330297       -5.2622440761        4.6704297767
  H        -0.4156127476       -6.0988819305        4.1367481919
  H        -1.2931127588       -5.1547968831        4.9497584977
  O        -3.8273131578       -5.5279235466        1.7633664403
  H        -4.1388543582       -6.3621998573        2.1513804320
  H        -4.3955669691       -5.3216936959        1.0405948547
     193
 i =        1, time =        0.500, E =     -1102.9245302354
  O         3.8619212064       -4.7564934429        5.5096681216
  H         4.2148837826       -5.5549239245        5.9963139674
  H         3.0920277052       -4.3225448085        5.9065260907
  O        -3.5427181375        1.7429068576        4.2899674229
  H        -3.3416562239        0.8258381586        4.1543211166
  H        -3.6022612302        1.9356629004        5.2821824279
  O         4.5683047621        2.9324348909       -7.0981987552
  H         3.6679484978        3.2178321646       -6.8132351332
  H         4.4883505260        2.7946696510       -8.0524289749
  O        -2.5736787972       -0.1019938302       -3.4158643623
  H        -2.0460263245        0.4261775708       -2.8323247604
  H        -1.8806826444       -0.6212428267       -3.9225001310
  O        -3.7623042538       -7.7105687290        5.6259582894
  H        -4.6427464745       -7.4219968916        5.9940055259
  H        -3.8515980269       -7.6244932225        4.6611960094
  O        -6.7094376777       -0.0752440101        2.3189333556
  H        -6.0394699620       -0.4624872833        3.0176140004
  H        -6.2612701626        0.7369085695        1.9592683499
  O         4.0136758149       -5.5817938786       -0.4127415000
  H         3.3292351564       -5.6070668356        0.3126710399
  H         3.9119208337       -4.7475147207       -0.8220087593
  O        -2.6722644620       -3.0803369583       -1.2268431785
  H        -3.2339486241       -2.4493064405       -1.7443413113
  H        -2.2113379054       -2.5971596533       -0.5752349849
  O         5.4552467658       -3.1687642195        3.0995717923
  H         4.6941623158       -3.2357057336        3.6356260020
  H         5.2637143877       -3.0648872978        2.1389949873
  O         2.0076617805        3.8027256852       -6.6437978984
  H         1.3655844204        3.0697610403       -6.8008339248
  H         1.8274271740        4.0668525989       -5.7125585080
  O         4.0603586406       -3.8906968321       -3.0583843736
  H         3.2260705192       -3.7181062438       -3.6831502325
  H         4.3517877181       -2.9680460659       -2.9758204401
  O         1.9770786627       -1.8457746501        1.0202705749
  H         1.5809634392       -2.4650102284        1.6440567144
  H         1.6081141920       -1.9208530265        0.0642657854
  O         0.7300756791       -5.7416899668       -5.0108662429
  H         1.4785784767       -6.3202310640       -4.8150770461
  H         0.4504365865       -5.7146696732       -5.9491033161
  O        -7.5205062396       -8.6780315444       -3.2365607842
  H        -7.8691855636       -9.6016493785       -3.0944099427
  H        -7.1372546985       -8.5837485213       -2.3502292375
  O         3.0073546600       -1.6212080505        5.1699415897
  H         3.8538974810       -1.8090173455        5.6856907985
  H         3.1600503796       -0.8292086026        4.6087439650
  O        -0.0949365334        1.8623920570       -6.6870013927
  H         0.2467595641        1.0549740480       -6.3261457855
  H        -0.0518904136        1.7491546492       -7.6538920047
  O         1.3775314049       -3.0812255615        3.6600401055
  H         2.0160630830       -2.6795094984        4.3181534103
  H         1.1014656174       -3.9645111559        3.9792232875
  O        -2.3260944748        2.8032274207        2.2377680536
  H        -1.6171130717        2.1484780657        2.1998470407
  H        -2.7632260620        2.5810389386        3.0965435771
  O         0.8708321136       -0.6621493551       -5.6027905598
  H         1.7111797733       -0.8251457833       -6.1164627367
  H         1.2077214954       -0.2361176759       -4.7578696364
  O        -1.1845070365       -0.7180392961        0.2467094432
  H        -1.1317441661        0.2311070122       -0.0605031097
  H        -0.9306833652       -0.7927415443        1.1975639460
  O        -3.8865415395       -9.0117657794       -3.1296256536
  H        -4.4943752969       -8.2872081403       -3.2111949811
  H        -2.9158167054       -8.7320384118       -3.1215898261
  O         4.9795271042        4.5559788145        2.1627412838
  H         4.5679940093        4.0744464442        1.4251538540
  H         4.2101356178        4.9030334301        2.6857837035
  O         4.2048389539        1.0310140628       -3.2099722467
  H         4.6412042046        0.8575225330       -4.0546162211
  H         4.4297275624        0.1915781683       -2.7344886889
  O        -5.2084367646       -6.3467274082       -2.6854310100
  H        -5.3726429792       -6.0694391172       -1.7557348998
  H        -6.0029619523       -6.0955532859       -3.1575867808
  O         4.8281481605       -2.1529681695        0.6970286511
  H         5.1671561450       -1.3768563262        1.1629614945
  H         3.8629044390       -2.0203646641        0.7896111651
  O         2.1064415907        0.9371460995        1.6948198054
  H         2.7561357662        1.4979967042        1.2759645200
  H         2.3102993191        0.0756121432        1.2827172432
  O        -5.7574677434       -5.0942299643       -0.3633126300
  H        -6.6936821675       -5.4266155173       -0.2507446109
  H        -5.9387526172       -4.1779548789       -0.6760665436
  O        -4.8536603444        4.6338007966        2.6307181834
  H        -5.8196596418        4.7195153053        2.3663829769
  H        -4.7747331910        3.6801863705        2.2531684840
  O         5.5096368502        0.8512724477       -5.5945215529
  H         6.4011092817        1.2058410096       -5.3391044705
  H         5.0339020792        1.4696432453       -6.2854899749
  O         0.7385984900       -1.9196366255       -1.2702300749
  H         0.4487501238       -2.6600408940       -1.8533295574
  H        -0.0329778417       -1.6314496650       -0.7347176030
  O         3.8987292136        2.6226253599        0.0814269937
  H         4.6616897486        2.4151729416       -0.4837922817
  H         3.3592112744        3.2461370896       -0.4779338583
  O        -1.1002409612       -1.3672404445        2.9477955426
  H        -0.3420967446       -2.0345285854        3.1188372798
  H        -1.8444225382       -1.9901923860        3.2047300321
  O         2.0737675274       -5.6494299150        1.3590392069
  H         1.2070729409       -6.1321021358        1.2448962999
  H         2.4502510875       -5.8859792421        2.2547623358
  O        -0.6284306362       -3.8288254417       -2.8458543716
  H        -1.5648395366       -3.7827392431       -2.5856174532
  H        -0.5036195214       -4.5942901102       -3.4084878357
  O        -5.2913129013        2.0604368043        1.4344735372
  H        -4.4534328335        1.8746688261        1.8964906935
  H        -5.1117438097        1.9323223170        0.4234171761
  O         1.9564026295       -3.4231821092       -5.2645644006
  H         1.3301753555       -4.2302819775       -5.0335547207
  H         1.2901005198       -2.7635703446       -5.4982623736
  O        -1.1936574440        3.9366175324       -3.3721046205
  H        -1.1939051236        3.9766969986       -4.3501292852
  H        -0.7322840686        4.6418920176       -2.9454537796
  O        -5.4220199766       -5.0002470735        4.2806117919
  H        -6.1380713961       -4.5169819020        3.7785075608
  H        -4.7409379595       -5.3472619119        3.6969507346
  O         2.9687502195        5.7963259590        3.6000457492
  H         3.4281699460        6.4697892371        4.1620099424
  H         2.4510306963        5.1953423645        4.2164505156
  O        -4.0500568598        1.5460463141       -5.0612105179
  H        -3.5395349106        0.8009392496       -4.6343912914
  H        -4.0168474655        2.3475361235       -4.4278997542
  O         3.4854887146        0.5986531113        4.0108672552
  H         2.7859359095        0.5270217923        3.2720195755
  H         4.3187957220        0.4089837651        3.4377598044
  O        -4.6181868929       -1.0086484419        4.0039733157
  H        -5.3574810379       -1.2430958127        4.6177329305
  H        -4.2082592385       -1.8906821923        3.8496657038
  O        -0.2177851909        1.2728106457        3.1136816955
  H         0.6436125391        1.4124105582        2.7318975987
  H        -0.3844185238        0.3106330586        3.0445099916
  O        -1.9919923347        5.0676022889        0.6007578398
  H        -2.3458609977        4.2427117912        1.0071806745
  H        -2.6562036288        5.7456171589        0.8483481996
  O        -1.3033350843       -1.8924912821       -4.9560382901
  H        -0.8708115650       -2.3967181164       -4.2516159326
  H        -0.5965765296       -1.3528202933       -5.4536883261
  O        -5.1392635867        1.8053371711       -1.2845088662
  H        -4.7027794293        2.4635189356       -1.8549079903
  H        -5.4247645377        1.1373078225       -1.8626939862
  O        -7.3840611830       -1.2117173418       -1.9495083417
  H        -6.4048643857       -1.0364422624       -2.1376098880
  H        -7.4759322556       -1.5318354472       -1.0117175357
  H        -0.4636325719        1.4042524008       -1.7238320080
  O        -1.4604285130        1.4065655812       -1.7230239085
  H        -0.7850215247        2.1843786296       -2.2059866379
  H         0.2634780745        0.9801812106       -2.2298439430
  O        -0.0323510068       -6.5208487529       -1.0938670372
  H         0.0057187482       -5.5304705945       -1.1195990687
  H        -0.8161724879       -6.7467895383       -0.4740943812
  O         5.7106059923       -1.6932754386        6.0206036717
  H         6.0248101170       -2.5153430663        6.4176008572
  H         5.6853390288       -0.8911054465        6.6350217218
  O        -2.5940096913       -5.7677271936       -4.2182214836
  H        -2.6072224595       -6.7151373339       -4.4749776514
  H        -3.4436509055       -5.5726470557       -3.8532254383
  O        -4.9469798757       -1.4115786734       -3.2445544996
  H        -4.8926836184       -2.2388372798       -3.7580582835
  H        -3.9716142610       -1.0837250335       -3.2414151210
  O         2.2975634706       -8.0833401809       -1.2130288627
  H         1.2982130468       -8.0827107741       -1.1139722161
  H         2.5216590696       -7.1136499315       -1.1712078494
  O         6.7795303586       -3.8956319480       -5.3334051340
  H         7.5474624179       -4.0962166656       -5.8135956714
  H         6.0431450115       -4.4274261132       -5.6545756465
  O        -0.3454585314        4.9680857959        2.9523537737
  H        -0.6529383399        4.1684676231        3.4625306879
  H        -0.6914968517        4.8628378237        2.0440682921
  O        -2.8035100132       -4.0048430110        6.2234769595
  H        -2.3849068006       -4.6323236621        6.8495861766
  H        -2.3841985741       -3.1468353722        6.4235844330
  O        -2.7941823866       -3.4738461362        3.4609054173
  H        -3.1097862569       -3.8681340885        4.2682057966
  H        -3.2962493909       -4.0289170583        2.8380563604
  O         2.4857895142        4.6853333201       -3.9508877909
  H         3.3980411109        4.5062595712       -3.6234702802
  H         1.9906334788        4.6359531664       -3.1196398007
  O         1.6573077676        0.0488466348       -3.1075104512
  H         1.5295151073       -0.5994414855       -2.3489901341
  H         2.5093470905        0.5345429475       -3.0663359221
  O        -1.2035594480       -8.1574508498       -6.3693332568
  H        -0.9110868315       -9.0692399353       -6.5665124777
  H        -2.1830720952       -8.0665945311       -6.5504051031
  O        -0.4738987900        8.3842941552        0.5984121062
  H         0.3678783163        8.3154743054        1.1029403736
  H        -1.2981461242        8.0699464515        1.0538382337
  O         5.9080955305       -6.7980088752       -6.6008928602
  H         5.4044078650       -7.6111642234       -6.9108616840
  H         6.2456886183       -6.2406895041       -7.3200225433
  O        -0.3560987116       -5.2635469610        4.6730081491
  H        -0.4050776655       -6.0921685768        4.1400580255
  H        -1.2964359827       -5.1514474345        4.9601835669
  O        -3.8236140831       -5.5250239357        1.7612288997
  H        -4.1392664517       -6.3539598869        2.1494708003
  H        -4.4079829792       -5.3219062926        1.0403017691
     193
 i =        2, time =        1.000, E =     -1102.9387454392
  O         3.8664001131       -4.7602333089        5.5098069438
  H         4.2188852606       -5.5566376265        6.0008227874
  H         3.0846647099       -4.3206850478        5.8982959834
  O        -3.5400752798        1.7409543362        4.2923879933
  H        -3.3271827464        0.8121151638        4.1524500463
  H        -3.6038661841        1.9269495135        5.2881753419
  O         4.5691747969        2.9321450738       -7.0958619746
  H         3.6577766559        3.2087988978       -6.8183598416
  H         4.4793989241        2.8048056071       -8.0587157180
  O        -2.5731476072       -0.0981004181       -3.4155141760
  H        -2.0547282861        0.4378554817       -2.8340314593
  H        -1.8757640962       -0.6270433746       -3.9198470484
  O        -3.7630298727       -7.7104000608        5.6242775458
  H        -4.6501197503       -7.4246012779        5.9997209362
  H        -3.8532888559       -7.6111509402        4.6555068323
  O        -6.7054320210       -0.0752665024        2.3195293707
  H        -6.0390521598       -0.4721877610        3.0268053958
  H        -6.2622845436        0.7354552287        1.9583784560
  O         4.0157084685       -5.5827771465       -0.4133596986
  H         3.3240491800       -5.5955464152        0.3198302077
  H         3.9223597399       -4.7370189598       -0.8148344257
  O        -2.6757364614       -3.0798754036       -1.2277534941
  H        -3.2173129801       -2.4503916288       -1.7465559755
  H        -2.2282904929       -2.5925744424       -0.5687058375
  O         5.4529746897       -3.1688783529        3.0990756315
  H         4.6941325705       -3.2317608575        3.6525591481
  H         5.2618795952       -3.0777201463        2.1387799110
  O         2.0075981218        3.8026874747       -6.6439800928
  H         1.3568883200        3.0728049579       -6.8007929867
  H         1.8176930888        4.0683117514       -5.7124549826
  O         4.0606584174       -3.8891011488       -3.0574587536
  H         3.2238671237       -3.7208394177       -3.6662586462
  H         4.3696875232       -2.9494170871       -2.9639177897
  O         1.9777180955       -1.8463964895        1.0178512549
  H         1.6011367473       -2.4627244013        1.6419864190
  H         1.6004193797       -1.9309096231        0.0705155933
  O         0.7266720622       -5.7405973828       -5.0099987343
  H         1.4804142979       -6.3140265777       -4.8158140487
  H         0.4542291848       -5.7193234710       -5.9511386440
  O        -7.5241184365       -8.6782486424       -3.2362592337
  H        -7.8704123733       -9.5997136247       -3.1055446075
  H        -7.1414438183       -8.5907406036       -2.3492317835
  O         3.0061518516       -1.6227703390        5.1688941245
  H         3.8582309337       -1.8184617791        5.6846144533
  H         3.1583311305       -0.8325711876        4.6033090083
  O        -0.0948915038        1.8632476342       -6.6878929785
  H         0.2558785008        1.0432529890       -6.3351078395
  H        -0.0586343471        1.7594739730       -7.6524408875
  O         1.3757335164       -3.0800835296        3.6610399183
  H         2.0286920901       -2.6823096945        4.3202936821
  H         1.1044062381       -3.9642071581        3.9795899595
  O        -2.3257432992        2.8029348775        2.2411786245
  H        -1.6078640636        2.1608924456        2.2117833692
  H        -2.7695148431        2.5800213479        3.1085641000
  O         0.8673303672       -0.6628295423       -5.6044472853
  H         1.7074592410       -0.8374815903       -6.1246039730
  H         1.2194356050       -0.2381094196       -4.7643121857
  O        -1.1817677800       -0.7199612733        0.2498324921
  H        -1.1310071781        0.2255538065       -0.0469739773
  H        -0.9243074845       -0.7960311936        1.1955823172
  O        -3.8846457750       -9.0116348251       -3.1279969124
  H        -4.4908154131       -8.2903547001       -3.2104084387
  H        -2.9105629726       -8.7341337116       -3.1216273482
  O         4.9815484594        4.5540377435        2.1653907474
  H         4.5666588020        4.0856831104        1.4110098692
  H         4.2118322948        4.9014982260        2.7008681319
  O         4.2015844255        1.0332850326       -3.2070350139
  H         4.6628692756        0.8643611833       -4.0478808888
  H         4.4362057351        0.1929530160       -2.7295005354
  O        -5.2070040540       -6.3489914441       -2.6913678397
  H        -5.3630460430       -6.0527399990       -1.7383106132
  H        -6.0104453749       -6.1051193931       -3.1650281528